------------------------------------------------------------
          Invoking FHI-aims ...

          When using FHI-aims, please cite the following reference:

            Volker Blum, Ralf Gehrke, Felix Hanke, Paula Havu,
            Ville Havu, Xinguo Ren, Karsten Reuter, and Matthias Scheffler,
            'Ab Initio Molecular Simulations with Numeric Atom-Centered Orbitals',
            Computer Physics Communications 180, 2175-2196 (2009)

          In addition, many other developments in FHI-aims are likely important for
          your particular application. A partial list of references is given at the end of
          this file. Thank you for giving credit to the authors of these developments.

          For any questions about FHI-aims, please visit our slack channel at

            https://fhi-aims.slack.com

          and our main development and support site at

            https://aims-git.rz-berlin.mpg.de .

          The latter site, in particular, has a wiki to collect information, as well
          as an issue tracker to log discussions, suggest improvements, and report issues
          or bugs. https://aims-git.rz-berlin.mpg.de is also the main development site
          of the project and all new and updated code versions can be obtained there.
          Please send an email to aims-coordinators@fhi-berlin.mpg.de and we will add
          you to these sites. They are for you and everyone is welcome there.

------------------------------------------------------------



  Date     :  20221210, Time     :  101532.135
  Time zero on CPU 1             :   0.237050400000000E+01  s.
  Internal wall clock time zero  :           439899332.135  s.

  FHI-aims created a unique identifier for this run for later identification
  aims_uuid : 8DD0676E-A924-424D-ACCA-05DEA939CF58

  Build configuration of the current instance of FHI-aims
  -------------------------------------------------------
  FHI-aims version      : 210716.3
  Commit number         : GITDIR-NOTFOUND
  CMake host system     : Linux-4.12.14-197.78_9.1.64-cray_shasta_c
  CMake version         : 3.10.2
  Fortran compiler      : /opt/cray/pe/craype/2.7.10/bin/ftn (GNU) version 11.2.0
  Fortran compiler flags: -O2 -fallow-argument-mismatch -ffree-line-length-none
  C compiler            : /opt/cray/pe/craype/2.7.10/bin/cc (GNU) version 11.2.0
  C compiler flags      : -O2
  Using MPI
  Using ScaLAPACK
  Using LibXC
  Using i-PI
  Using RLSY
  Linking against:

  Using      640 parallel tasks.
  Task        0 on host nid001395 reporting.
  Task        1 on host nid001395 reporting.
  Task        2 on host nid001395 reporting.
  Task        3 on host nid001395 reporting.
  Task        4 on host nid001395 reporting.
  Task        5 on host nid001395 reporting.
  Task        6 on host nid001395 reporting.
  Task        7 on host nid001395 reporting.
  Task        8 on host nid001395 reporting.
  Task        9 on host nid001395 reporting.
  Task       10 on host nid001395 reporting.
  Task       11 on host nid001395 reporting.
  Task       12 on host nid001395 reporting.
  Task       13 on host nid001395 reporting.
  Task       14 on host nid001395 reporting.
  Task       15 on host nid001395 reporting.
  Task       16 on host nid001395 reporting.
  Task       17 on host nid001395 reporting.
  Task       18 on host nid001395 reporting.
  Task       19 on host nid001395 reporting.
  Task       20 on host nid001395 reporting.
  Task       21 on host nid001395 reporting.
  Task       22 on host nid001395 reporting.
  Task       23 on host nid001395 reporting.
  Task       24 on host nid001395 reporting.
  Task       25 on host nid001395 reporting.
  Task       26 on host nid001395 reporting.
  Task       27 on host nid001395 reporting.
  Task       28 on host nid001395 reporting.
  Task       29 on host nid001395 reporting.
  Task       30 on host nid001395 reporting.
  Task       31 on host nid001395 reporting.
  Task       32 on host nid001395 reporting.
  Task       33 on host nid001395 reporting.
  Task       34 on host nid001395 reporting.
  Task       35 on host nid001395 reporting.
  Task       36 on host nid001395 reporting.
  Task       37 on host nid001395 reporting.
  Task       38 on host nid001395 reporting.
  Task       39 on host nid001395 reporting.
  Task       40 on host nid001395 reporting.
  Task       41 on host nid001395 reporting.
  Task       42 on host nid001395 reporting.
  Task       43 on host nid001395 reporting.
  Task       44 on host nid001395 reporting.
  Task       45 on host nid001395 reporting.
  Task       46 on host nid001395 reporting.
  Task       47 on host nid001395 reporting.
  Task       48 on host nid001395 reporting.
  Task       49 on host nid001395 reporting.
  Task       50 on host nid001395 reporting.
  Task       51 on host nid001395 reporting.
  Task       52 on host nid001395 reporting.
  Task       53 on host nid001395 reporting.
  Task       54 on host nid001395 reporting.
  Task       55 on host nid001395 reporting.
  Task       56 on host nid001395 reporting.
  Task       57 on host nid001395 reporting.
  Task       58 on host nid001395 reporting.
  Task       59 on host nid001395 reporting.
  Task       60 on host nid001395 reporting.
  Task       61 on host nid001395 reporting.
  Task       62 on host nid001395 reporting.
  Task       63 on host nid001395 reporting.
  Task       64 on host nid001395 reporting.
  Task       65 on host nid001395 reporting.
  Task       66 on host nid001395 reporting.
  Task       67 on host nid001395 reporting.
  Task       68 on host nid001395 reporting.
  Task       69 on host nid001395 reporting.
  Task       70 on host nid001395 reporting.
  Task       71 on host nid001395 reporting.
  Task       72 on host nid001395 reporting.
  Task       73 on host nid001395 reporting.
  Task       74 on host nid001395 reporting.
  Task       75 on host nid001395 reporting.
  Task       76 on host nid001395 reporting.
  Task       77 on host nid001395 reporting.
  Task       78 on host nid001395 reporting.
  Task       79 on host nid001395 reporting.
  Task       80 on host nid001395 reporting.
  Task       81 on host nid001395 reporting.
  Task       82 on host nid001395 reporting.
  Task       83 on host nid001395 reporting.
  Task       84 on host nid001395 reporting.
  Task       85 on host nid001395 reporting.
  Task       86 on host nid001395 reporting.
  Task       87 on host nid001395 reporting.
  Task       88 on host nid001395 reporting.
  Task       89 on host nid001395 reporting.
  Task       90 on host nid001395 reporting.
  Task       91 on host nid001395 reporting.
  Task       92 on host nid001395 reporting.
  Task       93 on host nid001395 reporting.
  Task       94 on host nid001395 reporting.
  Task       95 on host nid001395 reporting.
  Task       96 on host nid001395 reporting.
  Task       97 on host nid001395 reporting.
  Task       98 on host nid001395 reporting.
  Task       99 on host nid001395 reporting.
  Task      100 on host nid001395 reporting.
  Task      101 on host nid001395 reporting.
  Task      102 on host nid001395 reporting.
  Task      103 on host nid001395 reporting.
  Task      104 on host nid001395 reporting.
  Task      105 on host nid001395 reporting.
  Task      106 on host nid001395 reporting.
  Task      107 on host nid001395 reporting.
  Task      108 on host nid001395 reporting.
  Task      109 on host nid001395 reporting.
  Task      110 on host nid001395 reporting.
  Task      111 on host nid001395 reporting.
  Task      112 on host nid001395 reporting.
  Task      113 on host nid001395 reporting.
  Task      114 on host nid001395 reporting.
  Task      115 on host nid001395 reporting.
  Task      116 on host nid001395 reporting.
  Task      117 on host nid001395 reporting.
  Task      118 on host nid001395 reporting.
  Task      119 on host nid001395 reporting.
  Task      120 on host nid001395 reporting.
  Task      121 on host nid001395 reporting.
  Task      122 on host nid001395 reporting.
  Task      123 on host nid001395 reporting.
  Task      124 on host nid001395 reporting.
  Task      125 on host nid001395 reporting.
  Task      126 on host nid001395 reporting.
  Task      127 on host nid001395 reporting.
  Task      128 on host nid001441 reporting.
  Task      129 on host nid001441 reporting.
  Task      130 on host nid001441 reporting.
  Task      131 on host nid001441 reporting.
  Task      132 on host nid001441 reporting.
  Task      133 on host nid001441 reporting.
  Task      134 on host nid001441 reporting.
  Task      135 on host nid001441 reporting.
  Task      136 on host nid001441 reporting.
  Task      137 on host nid001441 reporting.
  Task      138 on host nid001441 reporting.
  Task      139 on host nid001441 reporting.
  Task      140 on host nid001441 reporting.
  Task      141 on host nid001441 reporting.
  Task      142 on host nid001441 reporting.
  Task      143 on host nid001441 reporting.
  Task      144 on host nid001441 reporting.
  Task      145 on host nid001441 reporting.
  Task      146 on host nid001441 reporting.
  Task      147 on host nid001441 reporting.
  Task      148 on host nid001441 reporting.
  Task      149 on host nid001441 reporting.
  Task      150 on host nid001441 reporting.
  Task      151 on host nid001441 reporting.
  Task      152 on host nid001441 reporting.
  Task      153 on host nid001441 reporting.
  Task      154 on host nid001441 reporting.
  Task      155 on host nid001441 reporting.
  Task      156 on host nid001441 reporting.
  Task      157 on host nid001441 reporting.
  Task      158 on host nid001441 reporting.
  Task      159 on host nid001441 reporting.
  Task      160 on host nid001441 reporting.
  Task      161 on host nid001441 reporting.
  Task      162 on host nid001441 reporting.
  Task      163 on host nid001441 reporting.
  Task      164 on host nid001441 reporting.
  Task      165 on host nid001441 reporting.
  Task      166 on host nid001441 reporting.
  Task      167 on host nid001441 reporting.
  Task      168 on host nid001441 reporting.
  Task      169 on host nid001441 reporting.
  Task      170 on host nid001441 reporting.
  Task      171 on host nid001441 reporting.
  Task      172 on host nid001441 reporting.
  Task      173 on host nid001441 reporting.
  Task      174 on host nid001441 reporting.
  Task      175 on host nid001441 reporting.
  Task      176 on host nid001441 reporting.
  Task      177 on host nid001441 reporting.
  Task      178 on host nid001441 reporting.
  Task      179 on host nid001441 reporting.
  Task      180 on host nid001441 reporting.
  Task      181 on host nid001441 reporting.
  Task      182 on host nid001441 reporting.
  Task      183 on host nid001441 reporting.
  Task      184 on host nid001441 reporting.
  Task      185 on host nid001441 reporting.
  Task      186 on host nid001441 reporting.
  Task      187 on host nid001441 reporting.
  Task      188 on host nid001441 reporting.
  Task      189 on host nid001441 reporting.
  Task      190 on host nid001441 reporting.
  Task      191 on host nid001441 reporting.
  Task      192 on host nid001441 reporting.
  Task      193 on host nid001441 reporting.
  Task      194 on host nid001441 reporting.
  Task      195 on host nid001441 reporting.
  Task      196 on host nid001441 reporting.
  Task      197 on host nid001441 reporting.
  Task      198 on host nid001441 reporting.
  Task      199 on host nid001441 reporting.
  Task      200 on host nid001441 reporting.
  Task      201 on host nid001441 reporting.
  Task      202 on host nid001441 reporting.
  Task      203 on host nid001441 reporting.
  Task      204 on host nid001441 reporting.
  Task      205 on host nid001441 reporting.
  Task      206 on host nid001441 reporting.
  Task      207 on host nid001441 reporting.
  Task      208 on host nid001441 reporting.
  Task      209 on host nid001441 reporting.
  Task      210 on host nid001441 reporting.
  Task      211 on host nid001441 reporting.
  Task      212 on host nid001441 reporting.
  Task      213 on host nid001441 reporting.
  Task      214 on host nid001441 reporting.
  Task      215 on host nid001441 reporting.
  Task      216 on host nid001441 reporting.
  Task      217 on host nid001441 reporting.
  Task      218 on host nid001441 reporting.
  Task      219 on host nid001441 reporting.
  Task      220 on host nid001441 reporting.
  Task      221 on host nid001441 reporting.
  Task      222 on host nid001441 reporting.
  Task      223 on host nid001441 reporting.
  Task      224 on host nid001441 reporting.
  Task      225 on host nid001441 reporting.
  Task      226 on host nid001441 reporting.
  Task      227 on host nid001441 reporting.
  Task      228 on host nid001441 reporting.
  Task      229 on host nid001441 reporting.
  Task      230 on host nid001441 reporting.
  Task      231 on host nid001441 reporting.
  Task      232 on host nid001441 reporting.
  Task      233 on host nid001441 reporting.
  Task      234 on host nid001441 reporting.
  Task      235 on host nid001441 reporting.
  Task      236 on host nid001441 reporting.
  Task      237 on host nid001441 reporting.
  Task      238 on host nid001441 reporting.
  Task      239 on host nid001441 reporting.
  Task      240 on host nid001441 reporting.
  Task      241 on host nid001441 reporting.
  Task      242 on host nid001441 reporting.
  Task      243 on host nid001441 reporting.
  Task      244 on host nid001441 reporting.
  Task      245 on host nid001441 reporting.
  Task      246 on host nid001441 reporting.
  Task      247 on host nid001441 reporting.
  Task      248 on host nid001441 reporting.
  Task      249 on host nid001441 reporting.
  Task      250 on host nid001441 reporting.
  Task      251 on host nid001441 reporting.
  Task      252 on host nid001441 reporting.
  Task      253 on host nid001441 reporting.
  Task      254 on host nid001441 reporting.
  Task      255 on host nid001441 reporting.
  Task      256 on host nid001443 reporting.
  Task      257 on host nid001443 reporting.
  Task      258 on host nid001443 reporting.
  Task      259 on host nid001443 reporting.
  Task      260 on host nid001443 reporting.
  Task      261 on host nid001443 reporting.
  Task      262 on host nid001443 reporting.
  Task      263 on host nid001443 reporting.
  Task      264 on host nid001443 reporting.
  Task      265 on host nid001443 reporting.
  Task      266 on host nid001443 reporting.
  Task      267 on host nid001443 reporting.
  Task      268 on host nid001443 reporting.
  Task      269 on host nid001443 reporting.
  Task      270 on host nid001443 reporting.
  Task      271 on host nid001443 reporting.
  Task      272 on host nid001443 reporting.
  Task      273 on host nid001443 reporting.
  Task      274 on host nid001443 reporting.
  Task      275 on host nid001443 reporting.
  Task      276 on host nid001443 reporting.
  Task      277 on host nid001443 reporting.
  Task      278 on host nid001443 reporting.
  Task      279 on host nid001443 reporting.
  Task      280 on host nid001443 reporting.
  Task      281 on host nid001443 reporting.
  Task      282 on host nid001443 reporting.
  Task      283 on host nid001443 reporting.
  Task      284 on host nid001443 reporting.
  Task      285 on host nid001443 reporting.
  Task      286 on host nid001443 reporting.
  Task      287 on host nid001443 reporting.
  Task      288 on host nid001443 reporting.
  Task      289 on host nid001443 reporting.
  Task      290 on host nid001443 reporting.
  Task      291 on host nid001443 reporting.
  Task      292 on host nid001443 reporting.
  Task      293 on host nid001443 reporting.
  Task      294 on host nid001443 reporting.
  Task      295 on host nid001443 reporting.
  Task      296 on host nid001443 reporting.
  Task      297 on host nid001443 reporting.
  Task      298 on host nid001443 reporting.
  Task      299 on host nid001443 reporting.
  Task      300 on host nid001443 reporting.
  Task      301 on host nid001443 reporting.
  Task      302 on host nid001443 reporting.
  Task      303 on host nid001443 reporting.
  Task      304 on host nid001443 reporting.
  Task      305 on host nid001443 reporting.
  Task      306 on host nid001443 reporting.
  Task      307 on host nid001443 reporting.
  Task      308 on host nid001443 reporting.
  Task      309 on host nid001443 reporting.
  Task      310 on host nid001443 reporting.
  Task      311 on host nid001443 reporting.
  Task      312 on host nid001443 reporting.
  Task      313 on host nid001443 reporting.
  Task      314 on host nid001443 reporting.
  Task      315 on host nid001443 reporting.
  Task      316 on host nid001443 reporting.
  Task      317 on host nid001443 reporting.
  Task      318 on host nid001443 reporting.
  Task      319 on host nid001443 reporting.
  Task      320 on host nid001443 reporting.
  Task      321 on host nid001443 reporting.
  Task      322 on host nid001443 reporting.
  Task      323 on host nid001443 reporting.
  Task      324 on host nid001443 reporting.
  Task      325 on host nid001443 reporting.
  Task      326 on host nid001443 reporting.
  Task      327 on host nid001443 reporting.
  Task      328 on host nid001443 reporting.
  Task      329 on host nid001443 reporting.
  Task      330 on host nid001443 reporting.
  Task      331 on host nid001443 reporting.
  Task      332 on host nid001443 reporting.
  Task      333 on host nid001443 reporting.
  Task      334 on host nid001443 reporting.
  Task      335 on host nid001443 reporting.
  Task      336 on host nid001443 reporting.
  Task      337 on host nid001443 reporting.
  Task      338 on host nid001443 reporting.
  Task      339 on host nid001443 reporting.
  Task      340 on host nid001443 reporting.
  Task      341 on host nid001443 reporting.
  Task      342 on host nid001443 reporting.
  Task      343 on host nid001443 reporting.
  Task      344 on host nid001443 reporting.
  Task      345 on host nid001443 reporting.
  Task      346 on host nid001443 reporting.
  Task      347 on host nid001443 reporting.
  Task      348 on host nid001443 reporting.
  Task      349 on host nid001443 reporting.
  Task      350 on host nid001443 reporting.
  Task      351 on host nid001443 reporting.
  Task      352 on host nid001443 reporting.
  Task      353 on host nid001443 reporting.
  Task      354 on host nid001443 reporting.
  Task      355 on host nid001443 reporting.
  Task      356 on host nid001443 reporting.
  Task      357 on host nid001443 reporting.
  Task      358 on host nid001443 reporting.
  Task      359 on host nid001443 reporting.
  Task      360 on host nid001443 reporting.
  Task      361 on host nid001443 reporting.
  Task      362 on host nid001443 reporting.
  Task      363 on host nid001443 reporting.
  Task      364 on host nid001443 reporting.
  Task      365 on host nid001443 reporting.
  Task      366 on host nid001443 reporting.
  Task      367 on host nid001443 reporting.
  Task      368 on host nid001443 reporting.
  Task      369 on host nid001443 reporting.
  Task      370 on host nid001443 reporting.
  Task      371 on host nid001443 reporting.
  Task      372 on host nid001443 reporting.
  Task      373 on host nid001443 reporting.
  Task      374 on host nid001443 reporting.
  Task      375 on host nid001443 reporting.
  Task      376 on host nid001443 reporting.
  Task      377 on host nid001443 reporting.
  Task      378 on host nid001443 reporting.
  Task      379 on host nid001443 reporting.
  Task      380 on host nid001443 reporting.
  Task      381 on host nid001443 reporting.
  Task      382 on host nid001443 reporting.
  Task      383 on host nid001443 reporting.
  Task      384 on host nid001446 reporting.
  Task      385 on host nid001446 reporting.
  Task      386 on host nid001446 reporting.
  Task      387 on host nid001446 reporting.
  Task      388 on host nid001446 reporting.
  Task      389 on host nid001446 reporting.
  Task      390 on host nid001446 reporting.
  Task      391 on host nid001446 reporting.
  Task      392 on host nid001446 reporting.
  Task      393 on host nid001446 reporting.
  Task      394 on host nid001446 reporting.
  Task      395 on host nid001446 reporting.
  Task      396 on host nid001446 reporting.
  Task      397 on host nid001446 reporting.
  Task      398 on host nid001446 reporting.
  Task      399 on host nid001446 reporting.
  Task      400 on host nid001446 reporting.
  Task      401 on host nid001446 reporting.
  Task      402 on host nid001446 reporting.
  Task      403 on host nid001446 reporting.
  Task      404 on host nid001446 reporting.
  Task      405 on host nid001446 reporting.
  Task      406 on host nid001446 reporting.
  Task      407 on host nid001446 reporting.
  Task      408 on host nid001446 reporting.
  Task      409 on host nid001446 reporting.
  Task      410 on host nid001446 reporting.
  Task      411 on host nid001446 reporting.
  Task      412 on host nid001446 reporting.
  Task      413 on host nid001446 reporting.
  Task      414 on host nid001446 reporting.
  Task      415 on host nid001446 reporting.
  Task      416 on host nid001446 reporting.
  Task      417 on host nid001446 reporting.
  Task      418 on host nid001446 reporting.
  Task      419 on host nid001446 reporting.
  Task      420 on host nid001446 reporting.
  Task      421 on host nid001446 reporting.
  Task      422 on host nid001446 reporting.
  Task      423 on host nid001446 reporting.
  Task      424 on host nid001446 reporting.
  Task      425 on host nid001446 reporting.
  Task      426 on host nid001446 reporting.
  Task      427 on host nid001446 reporting.
  Task      428 on host nid001446 reporting.
  Task      429 on host nid001446 reporting.
  Task      430 on host nid001446 reporting.
  Task      431 on host nid001446 reporting.
  Task      432 on host nid001446 reporting.
  Task      433 on host nid001446 reporting.
  Task      434 on host nid001446 reporting.
  Task      435 on host nid001446 reporting.
  Task      436 on host nid001446 reporting.
  Task      437 on host nid001446 reporting.
  Task      438 on host nid001446 reporting.
  Task      439 on host nid001446 reporting.
  Task      440 on host nid001446 reporting.
  Task      441 on host nid001446 reporting.
  Task      442 on host nid001446 reporting.
  Task      443 on host nid001446 reporting.
  Task      444 on host nid001446 reporting.
  Task      445 on host nid001446 reporting.
  Task      446 on host nid001446 reporting.
  Task      447 on host nid001446 reporting.
  Task      448 on host nid001446 reporting.
  Task      449 on host nid001446 reporting.
  Task      450 on host nid001446 reporting.
  Task      451 on host nid001446 reporting.
  Task      452 on host nid001446 reporting.
  Task      453 on host nid001446 reporting.
  Task      454 on host nid001446 reporting.
  Task      455 on host nid001446 reporting.
  Task      456 on host nid001446 reporting.
  Task      457 on host nid001446 reporting.
  Task      458 on host nid001446 reporting.
  Task      459 on host nid001446 reporting.
  Task      460 on host nid001446 reporting.
  Task      461 on host nid001446 reporting.
  Task      462 on host nid001446 reporting.
  Task      463 on host nid001446 reporting.
  Task      464 on host nid001446 reporting.
  Task      465 on host nid001446 reporting.
  Task      466 on host nid001446 reporting.
  Task      467 on host nid001446 reporting.
  Task      468 on host nid001446 reporting.
  Task      469 on host nid001446 reporting.
  Task      470 on host nid001446 reporting.
  Task      471 on host nid001446 reporting.
  Task      472 on host nid001446 reporting.
  Task      473 on host nid001446 reporting.
  Task      474 on host nid001446 reporting.
  Task      475 on host nid001446 reporting.
  Task      476 on host nid001446 reporting.
  Task      477 on host nid001446 reporting.
  Task      478 on host nid001446 reporting.
  Task      479 on host nid001446 reporting.
  Task      480 on host nid001446 reporting.
  Task      481 on host nid001446 reporting.
  Task      482 on host nid001446 reporting.
  Task      483 on host nid001446 reporting.
  Task      484 on host nid001446 reporting.
  Task      485 on host nid001446 reporting.
  Task      486 on host nid001446 reporting.
  Task      487 on host nid001446 reporting.
  Task      488 on host nid001446 reporting.
  Task      489 on host nid001446 reporting.
  Task      490 on host nid001446 reporting.
  Task      491 on host nid001446 reporting.
  Task      492 on host nid001446 reporting.
  Task      493 on host nid001446 reporting.
  Task      494 on host nid001446 reporting.
  Task      495 on host nid001446 reporting.
  Task      496 on host nid001446 reporting.
  Task      497 on host nid001446 reporting.
  Task      498 on host nid001446 reporting.
  Task      499 on host nid001446 reporting.
  Task      500 on host nid001446 reporting.
  Task      501 on host nid001446 reporting.
  Task      502 on host nid001446 reporting.
  Task      503 on host nid001446 reporting.
  Task      504 on host nid001446 reporting.
  Task      505 on host nid001446 reporting.
  Task      506 on host nid001446 reporting.
  Task      507 on host nid001446 reporting.
  Task      508 on host nid001446 reporting.
  Task      509 on host nid001446 reporting.
  Task      510 on host nid001446 reporting.
  Task      511 on host nid001446 reporting.
  Task      512 on host nid001450 reporting.
  Task      513 on host nid001450 reporting.
  Task      514 on host nid001450 reporting.
  Task      515 on host nid001450 reporting.
  Task      516 on host nid001450 reporting.
  Task      517 on host nid001450 reporting.
  Task      518 on host nid001450 reporting.
  Task      519 on host nid001450 reporting.
  Task      520 on host nid001450 reporting.
  Task      521 on host nid001450 reporting.
  Task      522 on host nid001450 reporting.
  Task      523 on host nid001450 reporting.
  Task      524 on host nid001450 reporting.
  Task      525 on host nid001450 reporting.
  Task      526 on host nid001450 reporting.
  Task      527 on host nid001450 reporting.
  Task      528 on host nid001450 reporting.
  Task      529 on host nid001450 reporting.
  Task      530 on host nid001450 reporting.
  Task      531 on host nid001450 reporting.
  Task      532 on host nid001450 reporting.
  Task      533 on host nid001450 reporting.
  Task      534 on host nid001450 reporting.
  Task      535 on host nid001450 reporting.
  Task      536 on host nid001450 reporting.
  Task      537 on host nid001450 reporting.
  Task      538 on host nid001450 reporting.
  Task      539 on host nid001450 reporting.
  Task      540 on host nid001450 reporting.
  Task      541 on host nid001450 reporting.
  Task      542 on host nid001450 reporting.
  Task      543 on host nid001450 reporting.
  Task      544 on host nid001450 reporting.
  Task      545 on host nid001450 reporting.
  Task      546 on host nid001450 reporting.
  Task      547 on host nid001450 reporting.
  Task      548 on host nid001450 reporting.
  Task      549 on host nid001450 reporting.
  Task      550 on host nid001450 reporting.
  Task      551 on host nid001450 reporting.
  Task      552 on host nid001450 reporting.
  Task      553 on host nid001450 reporting.
  Task      554 on host nid001450 reporting.
  Task      555 on host nid001450 reporting.
  Task      556 on host nid001450 reporting.
  Task      557 on host nid001450 reporting.
  Task      558 on host nid001450 reporting.
  Task      559 on host nid001450 reporting.
  Task      560 on host nid001450 reporting.
  Task      561 on host nid001450 reporting.
  Task      562 on host nid001450 reporting.
  Task      563 on host nid001450 reporting.
  Task      564 on host nid001450 reporting.
  Task      565 on host nid001450 reporting.
  Task      566 on host nid001450 reporting.
  Task      567 on host nid001450 reporting.
  Task      568 on host nid001450 reporting.
  Task      569 on host nid001450 reporting.
  Task      570 on host nid001450 reporting.
  Task      571 on host nid001450 reporting.
  Task      572 on host nid001450 reporting.
  Task      573 on host nid001450 reporting.
  Task      574 on host nid001450 reporting.
  Task      575 on host nid001450 reporting.
  Task      576 on host nid001450 reporting.
  Task      577 on host nid001450 reporting.
  Task      578 on host nid001450 reporting.
  Task      579 on host nid001450 reporting.
  Task      580 on host nid001450 reporting.
  Task      581 on host nid001450 reporting.
  Task      582 on host nid001450 reporting.
  Task      583 on host nid001450 reporting.
  Task      584 on host nid001450 reporting.
  Task      585 on host nid001450 reporting.
  Task      586 on host nid001450 reporting.
  Task      587 on host nid001450 reporting.
  Task      588 on host nid001450 reporting.
  Task      589 on host nid001450 reporting.
  Task      590 on host nid001450 reporting.
  Task      591 on host nid001450 reporting.
  Task      592 on host nid001450 reporting.
  Task      593 on host nid001450 reporting.
  Task      594 on host nid001450 reporting.
  Task      595 on host nid001450 reporting.
  Task      596 on host nid001450 reporting.
  Task      597 on host nid001450 reporting.
  Task      598 on host nid001450 reporting.
  Task      599 on host nid001450 reporting.
  Task      600 on host nid001450 reporting.
  Task      601 on host nid001450 reporting.
  Task      602 on host nid001450 reporting.
  Task      603 on host nid001450 reporting.
  Task      604 on host nid001450 reporting.
  Task      605 on host nid001450 reporting.
  Task      606 on host nid001450 reporting.
  Task      607 on host nid001450 reporting.
  Task      608 on host nid001450 reporting.
  Task      609 on host nid001450 reporting.
  Task      610 on host nid001450 reporting.
  Task      611 on host nid001450 reporting.
  Task      612 on host nid001450 reporting.
  Task      613 on host nid001450 reporting.
  Task      614 on host nid001450 reporting.
  Task      615 on host nid001450 reporting.
  Task      616 on host nid001450 reporting.
  Task      617 on host nid001450 reporting.
  Task      618 on host nid001450 reporting.
  Task      619 on host nid001450 reporting.
  Task      620 on host nid001450 reporting.
  Task      621 on host nid001450 reporting.
  Task      622 on host nid001450 reporting.
  Task      623 on host nid001450 reporting.
  Task      624 on host nid001450 reporting.
  Task      625 on host nid001450 reporting.
  Task      626 on host nid001450 reporting.
  Task      627 on host nid001450 reporting.
  Task      628 on host nid001450 reporting.
  Task      629 on host nid001450 reporting.
  Task      630 on host nid001450 reporting.
  Task      631 on host nid001450 reporting.
  Task      632 on host nid001450 reporting.
  Task      633 on host nid001450 reporting.
  Task      634 on host nid001450 reporting.
  Task      635 on host nid001450 reporting.
  Task      636 on host nid001450 reporting.
  Task      637 on host nid001450 reporting.
  Task      638 on host nid001450 reporting.
  Task      639 on host nid001450 reporting.

  Performing system and environment tests:
  | Environment variable OMP_NUM_THREADS correctly set to 1.
  | Checking for ScaLAPACK...
  | Testing pdtran()...
  | All pdtran() tests passed.

  Obtaining array dimensions for all initial allocations:
  
  -----------------------------------------------------------------------
  Parsing control.in (first pass over file, find array dimensions only).
  The contents of control.in will be repeated verbatim below
  unless switched off by setting 'verbatim_writeout .false.' .
  in the first line of control.in .
  -----------------------------------------------------------------------
  
  #===============================================================================
  # FHI-aims file: ./graph_ads/Cu_100/3A_full_go/control.in
  # Created using the Atomic Simulation Environment (ASE)
  # Thu Nov 24 11:24:23 2022
  #===============================================================================
  xc                                 pbe
  spin                               none
  relativistic                       atomic_zora scalar
  
  occupation_type                    gaussian 0.1
  sc_accuracy_rho                    1e-05
  sc_accuracy_eev                    0.001
  sc_accuracy_etot                   1e-06
  sc_iter_limit                      500
  
  many_body_dispersion_nl            beta=0.81
  
  relax_geometry                     bfgs 0.01
  stress_for_relaxation              analytical
  #===============================================================================
  
  ################################################################################
  #
  #  FHI-aims code project
  #  VB, Fritz-Haber Institut, 2010
  #
  #  Suggested "light" defaults for Cu atom (to be pasted into control.in file)
  #  Be sure to double-check any results obtained with these settings for post-processing,
  #  e.g., with the "tight" defaults and larger basis sets.
  #
  ################################################################################
    species        Cu1
  #
      nucleus      29
      mass         63.546
  #
      l_hartree    4
  #
      cut_pot      3.5  1.5  1.0
      basis_dep_cutoff    1e-4
  #
      radial_base        53 5.0
      radial_multiplier  1
      angular_grids       specified
        division   0.5231   50
        division   0.8642  110
        division   1.1767  194
        division   1.5041  302
  #      division   1.9293  434
  #      division   2.0065  590
  #      division   2.0466  770
  #      division   2.0877  974
  #      division   2.4589 1202
        outer_grid   302
  ################################################################################
  #
  #  Definition of "minimal" basis
  #
  ################################################################################
  #     valence basis states
      valence      4  s   1.
      valence      3  p   6.
      valence      3  d  10.
  #     ion occupancy
      ion_occ      4  s   0.
      ion_occ      3  p   6.
      ion_occ      3  d   9.
  ################################################################################
  #
  #  Suggested additional basis functions. For production calculations,
  #  uncomment them one after another (the most important basis functions are
  #  listed first).
  #
  #  Constructed for dimers: 1.8, 2.2, 3.0, 4.0 Ang
  #
  ################################################################################
  #  "First tier" - improvements: -211.42 meV to -9.17 meV
       ionic 4 p auto
       hydro 4 f 7.4
       hydro 3 s 2.6
       hydro 3 d 5
  #     hydro 5 g 10.4
  #  "Second tier" - improvements: -2.49 meV to -1.08 meV
  #     hydro 4 p 5.8
  #     hydro 3 d 2.7
  #     hydro 6 h 15.2
  #     hydro 5 s 10.8
  #     hydro 4 f 16
  #  "Third tier" - improvements: -0.50 meV to -0.21 meV
  #     hydro 4 d 6
  #     hydro 3 p 2.4
  #     hydro 4 f 6.4
  #     hydro 3 s 6.8
  #     hydro 5 g 11.2
  #  "Fourth tier" - improvements: -0.13 meV to -0.05 meV
  #     hydro 4 p 7
  #     hydro 4 s 4
  #     hydro 6 h 14
  #     hydro 4 d 8.6
  #     hydro 5 f 15.2
  
  hirshfeld_param 59.000 10.900 2.4000
  ################################################################################
  #
  #  FHI-aims code project
  #  Volker Blum, Fritz Haber Institute Berlin, 2010
  #
  #  Suggested "tight" defaults for Cu atom (to be pasted into control.in file)
  #
  ################################################################################
    species        Cu
  #
      nucleus      29
      mass         63.546
  #
      l_hartree    6
  #
      cut_pot      4.0  2.0  1.0
      basis_dep_cutoff    1e-4
  #
      radial_base        53 7.0
      radial_multiplier  2
      angular_grids       specified
        division   0.3478   50
        division   0.6638  110
        division   0.9718  194
        division   1.1992  302
        division   1.5920  434
  #      division   1.8557  590
  #      division   2.0466  770
  #      division   2.0877  974
  #      division   2.4589 1202
        outer_grid   434
  ################################################################################
  #
  #  Definition of "minimal" basis
  #
  ################################################################################
  #     valence basis states
      valence      4  s   1.
      valence      3  p   6.
      valence      3  d  10.
  #     ion occupancy
      ion_occ      4  s   0.
      ion_occ      3  p   6.
      ion_occ      3  d   9.
  ################################################################################
  #
  #  Suggested additional basis functions. For production calculations,
  #  uncomment them one after another (the most important basis functions are
  #  listed first).
  #
  #  Constructed for dimers: 1.8, 2.2, 3.0, 4.0 Ang
  #
  ################################################################################
  #  "First tier" - improvements: -211.42 meV to -9.17 meV
       ionic 4 p auto
       hydro 4 f 7.4
       hydro 3 s 2.6
       hydro 3 d 5
       hydro 5 g 10.4
  #  "Second tier" - improvements: -2.49 meV to -1.08 meV
  #     hydro 4 p 5.8
  #     hydro 3 d 2.7
  #     hydro 6 h 15.2
  #     hydro 5 s 10.8
  #     hydro 4 f 16
  #  "Third tier" - improvements: -0.50 meV to -0.21 meV
  #     hydro 4 d 6
  #     hydro 3 p 2.4
  #     hydro 4 f 6.4
  #     hydro 3 s 6.8
  #     hydro 5 g 11.2
  #  "Fourth tier" - improvements: -0.13 meV to -0.05 meV
  #     hydro 4 p 7
  #     hydro 4 s 4
  #     hydro 6 h 14
  #     hydro 4 d 8.6
  #     hydro 5 f 15.2
  
  hirshfeld_param 59.000 10.900 2.4000
  ################################################################################
  #
  #  FHI-aims code project
  #  Volker Blum, Fritz Haber Institute Berlin, 2009
  #
  #  Suggested "tight" defaults for C atom (to be pasted into control.in file)
  #
  ################################################################################
    species        C
  #     global species definitions
      nucleus             6
      mass                12.0107
  #
      l_hartree           6
  #
      cut_pot             4.0  2.0  1.0
      basis_dep_cutoff    1e-4
  #
      radial_base         34 7.0
      radial_multiplier   2
      angular_grids specified
        division   0.2187   50
        division   0.4416  110
        division   0.6335  194
        division   0.7727  302
        division   0.8772  434
  #      division   0.9334  590
  #      division   0.9924  770
  #      division   1.0230  974
  #      division   1.5020 1202
  #     outer_grid  974
        outer_grid  434
  ################################################################################
  #
  #  Definition of "minimal" basis
  #
  ################################################################################
  #     valence basis states
      valence      2  s   2.
      valence      2  p   2.
  #     ion occupancy
      ion_occ      2  s   1.
      ion_occ      2  p   1.
  ################################################################################
  #
  #  Suggested additional basis functions. For production calculations,
  #  uncomment them one after another (the most important basis functions are
  #  listed first).
  #
  #  Constructed for dimers: 1.0 A, 1.25 A, 1.5 A, 2.0 A, 3.0 A
  #
  ################################################################################
  #  "First tier" - improvements: -1214.57 meV to -155.61 meV
       hydro 2 p 1.7
       hydro 3 d 6
       hydro 2 s 4.9
  #  "Second tier" - improvements: -67.75 meV to -5.23 meV
       hydro 4 f 9.8
       hydro 3 p 5.2
       hydro 3 s 4.3
       hydro 5 g 14.4
       hydro 3 d 6.2
  #  "Third tier" - improvements: -2.43 meV to -0.60 meV
  #     hydro 2 p 5.6
  #     hydro 2 s 1.4
  #     hydro 3 d 4.9
  #     hydro 4 f 11.2
  #  "Fourth tier" - improvements: -0.39 meV to -0.18 meV
  #     hydro 2 p 2.1
  #     hydro 5 g 16.4
  #     hydro 4 d 13.2
  #     hydro 3 s 13.6
  #     hydro 4 f 17.6
  #  Further basis functions - improvements: -0.08 meV and below
  #     hydro 3 s 2
  #     hydro 3 p 6
  #     hydro 4 d 20
  ################################################################################
  #
  # For methods that use the localized form of the "resolution of identity" for
  # the two-electron Coulomb operator (RI_method LVL), particularly Hartree-Fock and
  # hybrid density functional calculations, the highest accuracy can be obtained by
  # uncommenting the line beginning with "for_aux"  below, thus adding an extra g radial
  # function to the construction of the product basis set for the expansion.
  # See Ref. New J. Phys. 17, 093020 (2015) for more information, particularly Figs. 1 and 6.
  #
  ################################################################################
  #
  # for_aux hydro 5 g 6.0
  ################################################################################
  #
  #  FHI-aims code project
  #  Volker Blum, Fritz Haber Institute Berlin, 2009
  #
  #  Suggested "tight" defaults for H atom (to be pasted into control.in file)
  #
  ################################################################################
    species        H
  #     global species definitions
      nucleus             1
      mass                1.00794
  #
      l_hartree           6
  #
      cut_pot             4.0  2.0  1.0
      basis_dep_cutoff    1e-4
  #
      radial_base         24 7.0
      radial_multiplier   2
      angular_grids       specified
        division   0.1930   50
        division   0.3175  110
        division   0.4293  194
        division   0.5066  302
        division   0.5626  434
  #      division   0.5922  590
  #      division   0.6227  974
  #      division   0.6868 1202
  #      outer_grid  770
        outer_grid  434
  ################################################################################
  #
  #  Definition of "minimal" basis
  #
  ################################################################################
  #     valence basis states
      valence      1  s   1.
  #     ion occupancy
      ion_occ      1  s   0.5
  ################################################################################
  #
  #  Suggested additional basis functions. For production calculations,
  #  uncomment them one after another (the most important basis functions are
  #  listed first).
  #
  #  Basis constructed for dimers: 0.5 A, 0.7 A, 1.0 A, 1.5 A, 2.5 A
  #
  ################################################################################
  #  "First tier" - improvements: -1014.90 meV to -62.69 meV
       hydro 2 s 2.1
       hydro 2 p 3.5
  #  "Second tier" - improvements: -12.89 meV to -1.83 meV
       hydro 1 s 0.85
       hydro 2 p 3.7
       hydro 2 s 1.2
       hydro 3 d 7
  #  "Third tier" - improvements: -0.25 meV to -0.12 meV
  #     hydro 4 f 11.2
  #     hydro 3 p 4.8
  #     hydro 4 d 9
  #     hydro 3 s 3.2
  ################################################################################
  #
  # For methods that use the localized form of the "resolution of identity" for
  # the two-electron Coulomb operator (RI_method LVL), particularly Hartree-Fock and
  # hybrid density functional calculations, the highest accuracy can be obtained by
  # uncommenting the line beginning with "for_aux"  below, thus adding an extra g radial
  # function to the construction of the product basis set for the expansion.
  # See Ref. New J. Phys. 17, 093020 (2015) for more information, particularly Figs. 1 and 6.
  #
  ################################################################################
  #
  # for_aux hydro 5 g 6.0
  
  -----------------------------------------------------------------------
  Completed first pass over input file control.in .
  -----------------------------------------------------------------------
  
  
  -----------------------------------------------------------------------
  Parsing geometry.in (first pass over file, find array dimensions only).
  The contents of geometry.in will be repeated verbatim below
  unless switched off by setting 'verbatim_writeout .false.' .
  in the first line of geometry.in .
  -----------------------------------------------------------------------
  
  #=======================================================
  # FHI-aims file: /home/dylanmorgan/comp_chem/warwick/azulene_cu/110/top_0/geometry.in
  # Created using the Atomic Simulation Environment (ASE)
  # Tue Dec  6 15:01:27 2022
  #=======================================================
  atom 8.5489230799999856 6.3499999999999925 11.4017210830000000 C
  atom 7.9329471699999878 7.5997972899999890 11.4017210830000000 C
  atom 7.9329471699999878 5.1002027099999978 11.4017210830000000 C
  atom 6.5750706299999937 7.9212675299999873 11.4017210830000000 C
  atom 6.5750706299999937 4.7787324699999987 11.4017210830000000 C
  atom 6.0902012699999952 9.2606502299999818 11.4017210830000000 C
  atom 6.0902012699999952 3.4393497700000024 11.4017210830000000 C
  atom 5.3999999999999968 7.0400754399999910 11.4017210830000000 C
  atom 5.3999999999999968 5.6599245599999959 11.4017210830000000 C
  atom 4.7097987300000002 9.2606502299999818 11.4017210830000000 C
  atom 4.7097987300000002 3.4393497700000024 11.4017210830000000 C
  atom 4.2249293700000017 7.9212675299999873 11.4017210830000000 C
  atom 4.2249293700000017 4.7787324699999987 11.4017210830000000 C
  atom 2.8670528300000027 7.5997972899999890 11.4017210830000000 C
  atom 2.8670528300000027 5.1002027099999978 11.4017210830000000 C
  atom 2.2510769200000027 6.3499999999999925 11.4017210830000000 C
  atom 9.6397650599999807 6.3499999999999925 11.4017210830000000 H
  atom 8.6043037299999838 8.4630545299999849 11.4017210830000000 H
  atom 8.6043037299999838 4.2369454700000020 11.4017210830000000 H
  atom 6.7334162599999923 10.1375951099999781 11.4017210830000000 H
  atom 6.7334162599999923 2.5624048900000025 11.4017210830000000 H
  atom 4.0665837400000022 10.1375951099999781 11.4017210830000000 H
  atom 4.0665837400000022 2.5624048900000025 11.4017210830000000 H
  atom 2.1956962700000027 8.4630545299999849 11.4017210830000000 H
  atom 2.1956962700000027 4.2369454700000020 11.4017210830000000 H
  atom 1.1602349400000020 6.3499999999999925 11.4017210830000000 H
  
  -----------------------------------------------------------------------
  Completed first pass over input file geometry.in .
  -----------------------------------------------------------------------
  

  Basic array size parameters:
  | Number of species                 :        4
  | Number of atoms                   :       26
  | Max. basis fn. angular momentum   :        4
  | Max. atomic/ionic basis occupied n:        4
  | Max. number of basis fn. types    :        3
  | Max. radial fns per species/type  :        8
  | Max. logarithmic grid size        :     1406
  | Max. radial integration grid size :      107
  | Max. angular integration grid size:      434
  | Max. angular grid division number :        8
  | Radial grid for Hartree potential :     1406
  | Number of spin channels           :        1

------------------------------------------------------------
          Reading file control.in.
------------------------------------------------------------
  XC: Using PBE gradient-corrected functionals.
  Spin treatment: No spin polarisation.
  Scalar relativistic treatment of kinetic energy: on-site free-atom approximation to ZORA.
  Occupation type: Gaussian broadening, width =   0.100000E+00 eV.
  Convergence accuracy of self-consistent charge density:  0.1000E-04
  Convergence accuracy of sum of eigenvalues:  0.1000E-02
  Convergence accuracy of total energy:  0.1000E-05
  Maximum number of s.-c. iterations  :   500
  Using libMBD for calculating MBD and TS energies
  Geometry relaxation: Modified BFGS - TRM (trust radius method) for lattice optimization.
  Convergence accuracy for geometry relaxation: Maximum force <   0.100000E-01 eV/A.

  Reading configuration options for species Cu1                 .
  | Found nuclear charge :  29.0000
  | Found atomic mass :    63.545999999999999      amu
  | Found l_max for Hartree potential  :   4
  | Found cutoff potl. onset [A], width [A], scale factor :    3.50000    1.50000    1.00000
  | Threshold for basis-dependent cutoff potential is   0.100000E-03
  | Found data for basic radial integration grid :    53 points, outermost radius =    5.000 A
  | Found multiplier for basic radial grid :   1
  | Found angular grid specification: user-specified.
  | Specified grid contains     5 separate shells.
  | Check grid settings after all constraints further below.
  | Found free-atom valence shell :  4 s   1.000
  | Found free-atom valence shell :  3 p   6.000
  | Found free-atom valence shell :  3 d  10.000
  | Found free-ion valence shell :  4 s   0.000
  | Found free-ion valence shell :  3 p   6.000
  | Found free-ion valence shell :  3 d   9.000
  | Found ionic basis function :  4 p , default cutoff radius.
  | Found hydrogenic basis function :  4 f   7.400
  | Found hydrogenic basis function :  3 s   2.600
  | Found hydrogenic basis function :  3 d   5.000
  | Found explicit parameters for TS-vdw correction:
  |    C6    =  59.000000
  |    alpha =  10.900000
  |    R0    =   2.400000
  Species Cu1                 : Missing cutoff potential type.
  Defaulting to exp(1/x)/(1-x)^2 type cutoff potential.
  Species Cu: No 'logarithmic' tag. Using default grid for free atom:
  | Default logarithmic grid data [bohr] : 0.1000E-03 0.1000E+03 0.1012E+01
  | Will include ionic basis functions of  2.0-fold positive Cu1                  ion.
  Species Cu: On-site basis accuracy parameter (for Gram-Schmidt orthonormalisation) not specified.
  Using default value basis_acc =  0.1000000E-03.
  Species Cu1                 : Using default innermost maximum threshold i_radial=  2 for radial functions.
  Species Cu1                 : Default cutoff onset for free atom density etc. : 0.35000000E+01 AA.
  Species Cu1                 : Basic radial grid will be enhanced according to radial_multiplier =   1, to contain    53 grid points.

  Reading configuration options for species Cu                  .
  | Found nuclear charge :  29.0000
  | Found atomic mass :    63.545999999999999      amu
  | Found l_max for Hartree potential  :   6
  | Found cutoff potl. onset [A], width [A], scale factor :    4.00000    2.00000    1.00000
  | Threshold for basis-dependent cutoff potential is   0.100000E-03
  | Found data for basic radial integration grid :    53 points, outermost radius =    7.000 A
  | Found multiplier for basic radial grid :   2
  | Found angular grid specification: user-specified.
  | Specified grid contains     6 separate shells.
  | Check grid settings after all constraints further below.
  | Found free-atom valence shell :  4 s   1.000
  | Found free-atom valence shell :  3 p   6.000
  | Found free-atom valence shell :  3 d  10.000
  | Found free-ion valence shell :  4 s   0.000
  | Found free-ion valence shell :  3 p   6.000
  | Found free-ion valence shell :  3 d   9.000
  | Found ionic basis function :  4 p , default cutoff radius.
  | Found hydrogenic basis function :  4 f   7.400
  | Found hydrogenic basis function :  3 s   2.600
  | Found hydrogenic basis function :  3 d   5.000
  | Found hydrogenic basis function :  5 g  10.400
  | Found explicit parameters for TS-vdw correction:
  |    C6    =  59.000000
  |    alpha =  10.900000
  |    R0    =   2.400000
  Species Cu                  : Missing cutoff potential type.
  Defaulting to exp(1/x)/(1-x)^2 type cutoff potential.
  Species Cu: No 'logarithmic' tag. Using default grid for free atom:
  | Default logarithmic grid data [bohr] : 0.1000E-03 0.1000E+03 0.1012E+01
  | Will include ionic basis functions of  2.0-fold positive Cu                   ion.
  Species Cu: On-site basis accuracy parameter (for Gram-Schmidt orthonormalisation) not specified.
  Using default value basis_acc =  0.1000000E-03.
  Species Cu                  : Using default innermost maximum threshold i_radial=  2 for radial functions.
  Species Cu                  : Default cutoff onset for free atom density etc. : 0.40000000E+01 AA.
  Species Cu                  : Basic radial grid will be enhanced according to radial_multiplier =   2, to contain   107 grid points.

  Reading configuration options for species C                   .
  | Found nuclear charge :   6.0000
  | Found atomic mass :    12.010700000000000      amu
  | Found l_max for Hartree potential  :   6
  | Found cutoff potl. onset [A], width [A], scale factor :    4.00000    2.00000    1.00000
  | Threshold for basis-dependent cutoff potential is   0.100000E-03
  | Found data for basic radial integration grid :    34 points, outermost radius =    7.000 A
  | Found multiplier for basic radial grid :   2
  | Found angular grid specification: user-specified.
  | Specified grid contains     6 separate shells.
  | Check grid settings after all constraints further below.
  | Found free-atom valence shell :  2 s   2.000
  | Found free-atom valence shell :  2 p   2.000
  | Found free-ion valence shell :  2 s   1.000
  | Found free-ion valence shell :  2 p   1.000
  | Found hydrogenic basis function :  2 p   1.700
  | Found hydrogenic basis function :  3 d   6.000
  | Found hydrogenic basis function :  2 s   4.900
  | Found hydrogenic basis function :  4 f   9.800
  | Found hydrogenic basis function :  3 p   5.200
  | Found hydrogenic basis function :  3 s   4.300
  | Found hydrogenic basis function :  5 g  14.400
  | Found hydrogenic basis function :  3 d   6.200
  Species C                   : Missing cutoff potential type.
  Defaulting to exp(1/x)/(1-x)^2 type cutoff potential.
  Species C : No 'logarithmic' tag. Using default grid for free atom:
  | Default logarithmic grid data [bohr] : 0.1000E-03 0.1000E+03 0.1012E+01
  Species C : On-site basis accuracy parameter (for Gram-Schmidt orthonormalisation) not specified.
  Using default value basis_acc =  0.1000000E-03.
  Species C                   : Using default innermost maximum threshold i_radial=  2 for radial functions.
  Species C                   : Default cutoff onset for free atom density etc. : 0.40000000E+01 AA.
  Species C                   : Basic radial grid will be enhanced according to radial_multiplier =   2, to contain    69 grid points.

  Reading configuration options for species H                   .
  | Found nuclear charge :   1.0000
  | Found atomic mass :    1.0079400000000001      amu
  | Found l_max for Hartree potential  :   6
  | Found cutoff potl. onset [A], width [A], scale factor :    4.00000    2.00000    1.00000
  | Threshold for basis-dependent cutoff potential is   0.100000E-03
  | Found data for basic radial integration grid :    24 points, outermost radius =    7.000 A
  | Found multiplier for basic radial grid :   2
  | Found angular grid specification: user-specified.
  | Specified grid contains     6 separate shells.
  | Check grid settings after all constraints further below.
  | Found free-atom valence shell :  1 s   1.000
  | Found free-ion valence shell :  1 s   0.500
  | Found hydrogenic basis function :  2 s   2.100
  | Found hydrogenic basis function :  2 p   3.500
  | Found hydrogenic basis function :  1 s   0.850
  | Found hydrogenic basis function :  2 p   3.700
  | Found hydrogenic basis function :  2 s   1.200
  | Found hydrogenic basis function :  3 d   7.000
  Species H                   : Missing cutoff potential type.
  Defaulting to exp(1/x)/(1-x)^2 type cutoff potential.
  Species H : No 'logarithmic' tag. Using default grid for free atom:
  | Default logarithmic grid data [bohr] : 0.1000E-03 0.1000E+03 0.1012E+01
  Species H : On-site basis accuracy parameter (for Gram-Schmidt orthonormalisation) not specified.
  Using default value basis_acc =  0.1000000E-03.
  Species H                   : Using default innermost maximum threshold i_radial=  2 for radial functions.
  Species H                   : Default cutoff onset for free atom density etc. : 0.40000000E+01 AA.
  Species H                   : Basic radial grid will be enhanced according to radial_multiplier =   2, to contain    49 grid points.

  Finished reading input file 'control.in'.

------------------------------------------------------------


------------------------------------------------------------
          Reading geometry description geometry.in.
------------------------------------------------------------
  | The smallest distance between any two atoms is         1.08754671 AA.
  | The first atom of this pair is atom number                      6 .
  | The second atom of this pair is atom number                    20 .
  Input structure read successfully.
  The structure contains       26 atoms,  and a total of        106.000 electrons.

  Input geometry:
  | No unit cell requested.
  | Atomic structure:
  |       Atom                x [A]            y [A]            z [A]
  |    1: Species C             8.54892308        6.35000000       11.40172108
  |    2: Species C             7.93294717        7.59979729       11.40172108
  |    3: Species C             7.93294717        5.10020271       11.40172108
  |    4: Species C             6.57507063        7.92126753       11.40172108
  |    5: Species C             6.57507063        4.77873247       11.40172108
  |    6: Species C             6.09020127        9.26065023       11.40172108
  |    7: Species C             6.09020127        3.43934977       11.40172108
  |    8: Species C             5.40000000        7.04007544       11.40172108
  |    9: Species C             5.40000000        5.65992456       11.40172108
  |   10: Species C             4.70979873        9.26065023       11.40172108
  |   11: Species C             4.70979873        3.43934977       11.40172108
  |   12: Species C             4.22492937        7.92126753       11.40172108
  |   13: Species C             4.22492937        4.77873247       11.40172108
  |   14: Species C             2.86705283        7.59979729       11.40172108
  |   15: Species C             2.86705283        5.10020271       11.40172108
  |   16: Species C             2.25107692        6.35000000       11.40172108
  |   17: Species H             9.63976506        6.35000000       11.40172108
  |   18: Species H             8.60430373        8.46305453       11.40172108
  |   19: Species H             8.60430373        4.23694547       11.40172108
  |   20: Species H             6.73341626       10.13759511       11.40172108
  |   21: Species H             6.73341626        2.56240489       11.40172108
  |   22: Species H             4.06658374       10.13759511       11.40172108
  |   23: Species H             4.06658374        2.56240489       11.40172108
  |   24: Species H             2.19569627        8.46305453       11.40172108
  |   25: Species H             2.19569627        4.23694547       11.40172108
  |   26: Species H             1.16023494        6.35000000       11.40172108


  Finished reading input file 'control.in'.


------------------------------------------------------------
          Reading geometry description geometry.in.
------------------------------------------------------------

  Consistency checks for stacksize environment parameter are next.

  | Maximum stacksize for task 0: unlimited
  | Maximum stacksize for task 1: unlimited
  | Maximum stacksize for task 2: unlimited
  | Maximum stacksize for task 3: unlimited
  | Maximum stacksize for task 4: unlimited
  | Maximum stacksize for task 5: unlimited
  | Maximum stacksize for task 6: unlimited
  | Maximum stacksize for task 7: unlimited
  | Maximum stacksize for task 8: unlimited
  | Maximum stacksize for task 9: unlimited
  | Maximum stacksize for task 10: unlimited
  | Maximum stacksize for task 11: unlimited
  | Maximum stacksize for task 12: unlimited
  | Maximum stacksize for task 13: unlimited
  | Maximum stacksize for task 14: unlimited
  | Maximum stacksize for task 15: unlimited
  | Maximum stacksize for task 16: unlimited
  | Maximum stacksize for task 17: unlimited
  | Maximum stacksize for task 18: unlimited
  | Maximum stacksize for task 19: unlimited
  | Maximum stacksize for task 20: unlimited
  | Maximum stacksize for task 21: unlimited
  | Maximum stacksize for task 22: unlimited
  | Maximum stacksize for task 23: unlimited
  | Maximum stacksize for task 24: unlimited
  | Maximum stacksize for task 25: unlimited
  | Maximum stacksize for task 26: unlimited
  | Maximum stacksize for task 27: unlimited
  | Maximum stacksize for task 28: unlimited
  | Maximum stacksize for task 29: unlimited
  | Maximum stacksize for task 30: unlimited
  | Maximum stacksize for task 31: unlimited
  | Maximum stacksize for task 32: unlimited
  | Maximum stacksize for task 33: unlimited
  | Maximum stacksize for task 34: unlimited
  | Maximum stacksize for task 35: unlimited
  | Maximum stacksize for task 36: unlimited
  | Maximum stacksize for task 37: unlimited
  | Maximum stacksize for task 38: unlimited
  | Maximum stacksize for task 39: unlimited
  | Maximum stacksize for task 40: unlimited
  | Maximum stacksize for task 41: unlimited
  | Maximum stacksize for task 42: unlimited
  | Maximum stacksize for task 43: unlimited
  | Maximum stacksize for task 44: unlimited
  | Maximum stacksize for task 45: unlimited
  | Maximum stacksize for task 46: unlimited
  | Maximum stacksize for task 47: unlimited
  | Maximum stacksize for task 48: unlimited
  | Maximum stacksize for task 49: unlimited
  | Maximum stacksize for task 50: unlimited
  | Maximum stacksize for task 51: unlimited
  | Maximum stacksize for task 52: unlimited
  | Maximum stacksize for task 53: unlimited
  | Maximum stacksize for task 54: unlimited
  | Maximum stacksize for task 55: unlimited
  | Maximum stacksize for task 56: unlimited
  | Maximum stacksize for task 57: unlimited
  | Maximum stacksize for task 58: unlimited
  | Maximum stacksize for task 59: unlimited
  | Maximum stacksize for task 60: unlimited
  | Maximum stacksize for task 61: unlimited
  | Maximum stacksize for task 62: unlimited
  | Maximum stacksize for task 63: unlimited
  | Maximum stacksize for task 64: unlimited
  | Maximum stacksize for task 65: unlimited
  | Maximum stacksize for task 66: unlimited
  | Maximum stacksize for task 67: unlimited
  | Maximum stacksize for task 68: unlimited
  | Maximum stacksize for task 69: unlimited
  | Maximum stacksize for task 70: unlimited
  | Maximum stacksize for task 71: unlimited
  | Maximum stacksize for task 72: unlimited
  | Maximum stacksize for task 73: unlimited
  | Maximum stacksize for task 74: unlimited
  | Maximum stacksize for task 75: unlimited
  | Maximum stacksize for task 76: unlimited
  | Maximum stacksize for task 77: unlimited
  | Maximum stacksize for task 78: unlimited
  | Maximum stacksize for task 79: unlimited
  | Maximum stacksize for task 80: unlimited
  | Maximum stacksize for task 81: unlimited
  | Maximum stacksize for task 82: unlimited
  | Maximum stacksize for task 83: unlimited
  | Maximum stacksize for task 84: unlimited
  | Maximum stacksize for task 85: unlimited
  | Maximum stacksize for task 86: unlimited
  | Maximum stacksize for task 87: unlimited
  | Maximum stacksize for task 88: unlimited
  | Maximum stacksize for task 89: unlimited
  | Maximum stacksize for task 90: unlimited
  | Maximum stacksize for task 91: unlimited
  | Maximum stacksize for task 92: unlimited
  | Maximum stacksize for task 93: unlimited
  | Maximum stacksize for task 94: unlimited
  | Maximum stacksize for task 95: unlimited
  | Maximum stacksize for task 96: unlimited
  | Maximum stacksize for task 97: unlimited
  | Maximum stacksize for task 98: unlimited
  | Maximum stacksize for task 99: unlimited
  | Maximum stacksize for task 100: unlimited
  | Maximum stacksize for task 101: unlimited
  | Maximum stacksize for task 102: unlimited
  | Maximum stacksize for task 103: unlimited
  | Maximum stacksize for task 104: unlimited
  | Maximum stacksize for task 105: unlimited
  | Maximum stacksize for task 106: unlimited
  | Maximum stacksize for task 107: unlimited
  | Maximum stacksize for task 108: unlimited
  | Maximum stacksize for task 109: unlimited
  | Maximum stacksize for task 110: unlimited
  | Maximum stacksize for task 111: unlimited
  | Maximum stacksize for task 112: unlimited
  | Maximum stacksize for task 113: unlimited
  | Maximum stacksize for task 114: unlimited
  | Maximum stacksize for task 115: unlimited
  | Maximum stacksize for task 116: unlimited
  | Maximum stacksize for task 117: unlimited
  | Maximum stacksize for task 118: unlimited
  | Maximum stacksize for task 119: unlimited
  | Maximum stacksize for task 120: unlimited
  | Maximum stacksize for task 121: unlimited
  | Maximum stacksize for task 122: unlimited
  | Maximum stacksize for task 123: unlimited
  | Maximum stacksize for task 124: unlimited
  | Maximum stacksize for task 125: unlimited
  | Maximum stacksize for task 126: unlimited
  | Maximum stacksize for task 127: unlimited
  | Maximum stacksize for task 128: unlimited
  | Maximum stacksize for task 129: unlimited
  | Maximum stacksize for task 130: unlimited
  | Maximum stacksize for task 131: unlimited
  | Maximum stacksize for task 132: unlimited
  | Maximum stacksize for task 133: unlimited
  | Maximum stacksize for task 134: unlimited
  | Maximum stacksize for task 135: unlimited
  | Maximum stacksize for task 136: unlimited
  | Maximum stacksize for task 137: unlimited
  | Maximum stacksize for task 138: unlimited
  | Maximum stacksize for task 139: unlimited
  | Maximum stacksize for task 140: unlimited
  | Maximum stacksize for task 141: unlimited
  | Maximum stacksize for task 142: unlimited
  | Maximum stacksize for task 143: unlimited
  | Maximum stacksize for task 144: unlimited
  | Maximum stacksize for task 145: unlimited
  | Maximum stacksize for task 146: unlimited
  | Maximum stacksize for task 147: unlimited
  | Maximum stacksize for task 148: unlimited
  | Maximum stacksize for task 149: unlimited
  | Maximum stacksize for task 150: unlimited
  | Maximum stacksize for task 151: unlimited
  | Maximum stacksize for task 152: unlimited
  | Maximum stacksize for task 153: unlimited
  | Maximum stacksize for task 154: unlimited
  | Maximum stacksize for task 155: unlimited
  | Maximum stacksize for task 156: unlimited
  | Maximum stacksize for task 157: unlimited
  | Maximum stacksize for task 158: unlimited
  | Maximum stacksize for task 159: unlimited
  | Maximum stacksize for task 160: unlimited
  | Maximum stacksize for task 161: unlimited
  | Maximum stacksize for task 162: unlimited
  | Maximum stacksize for task 163: unlimited
  | Maximum stacksize for task 164: unlimited
  | Maximum stacksize for task 165: unlimited
  | Maximum stacksize for task 166: unlimited
  | Maximum stacksize for task 167: unlimited
  | Maximum stacksize for task 168: unlimited
  | Maximum stacksize for task 169: unlimited
  | Maximum stacksize for task 170: unlimited
  | Maximum stacksize for task 171: unlimited
  | Maximum stacksize for task 172: unlimited
  | Maximum stacksize for task 173: unlimited
  | Maximum stacksize for task 174: unlimited
  | Maximum stacksize for task 175: unlimited
  | Maximum stacksize for task 176: unlimited
  | Maximum stacksize for task 177: unlimited
  | Maximum stacksize for task 178: unlimited
  | Maximum stacksize for task 179: unlimited
  | Maximum stacksize for task 180: unlimited
  | Maximum stacksize for task 181: unlimited
  | Maximum stacksize for task 182: unlimited
  | Maximum stacksize for task 183: unlimited
  | Maximum stacksize for task 184: unlimited
  | Maximum stacksize for task 185: unlimited
  | Maximum stacksize for task 186: unlimited
  | Maximum stacksize for task 187: unlimited
  | Maximum stacksize for task 188: unlimited
  | Maximum stacksize for task 189: unlimited
  | Maximum stacksize for task 190: unlimited
  | Maximum stacksize for task 191: unlimited
  | Maximum stacksize for task 192: unlimited
  | Maximum stacksize for task 193: unlimited
  | Maximum stacksize for task 194: unlimited
  | Maximum stacksize for task 195: unlimited
  | Maximum stacksize for task 196: unlimited
  | Maximum stacksize for task 197: unlimited
  | Maximum stacksize for task 198: unlimited
  | Maximum stacksize for task 199: unlimited
  | Maximum stacksize for task 200: unlimited
  | Maximum stacksize for task 201: unlimited
  | Maximum stacksize for task 202: unlimited
  | Maximum stacksize for task 203: unlimited
  | Maximum stacksize for task 204: unlimited
  | Maximum stacksize for task 205: unlimited
  | Maximum stacksize for task 206: unlimited
  | Maximum stacksize for task 207: unlimited
  | Maximum stacksize for task 208: unlimited
  | Maximum stacksize for task 209: unlimited
  | Maximum stacksize for task 210: unlimited
  | Maximum stacksize for task 211: unlimited
  | Maximum stacksize for task 212: unlimited
  | Maximum stacksize for task 213: unlimited
  | Maximum stacksize for task 214: unlimited
  | Maximum stacksize for task 215: unlimited
  | Maximum stacksize for task 216: unlimited
  | Maximum stacksize for task 217: unlimited
  | Maximum stacksize for task 218: unlimited
  | Maximum stacksize for task 219: unlimited
  | Maximum stacksize for task 220: unlimited
  | Maximum stacksize for task 221: unlimited
  | Maximum stacksize for task 222: unlimited
  | Maximum stacksize for task 223: unlimited
  | Maximum stacksize for task 224: unlimited
  | Maximum stacksize for task 225: unlimited
  | Maximum stacksize for task 226: unlimited
  | Maximum stacksize for task 227: unlimited
  | Maximum stacksize for task 228: unlimited
  | Maximum stacksize for task 229: unlimited
  | Maximum stacksize for task 230: unlimited
  | Maximum stacksize for task 231: unlimited
  | Maximum stacksize for task 232: unlimited
  | Maximum stacksize for task 233: unlimited
  | Maximum stacksize for task 234: unlimited
  | Maximum stacksize for task 235: unlimited
  | Maximum stacksize for task 236: unlimited
  | Maximum stacksize for task 237: unlimited
  | Maximum stacksize for task 238: unlimited
  | Maximum stacksize for task 239: unlimited
  | Maximum stacksize for task 240: unlimited
  | Maximum stacksize for task 241: unlimited
  | Maximum stacksize for task 242: unlimited
  | Maximum stacksize for task 243: unlimited
  | Maximum stacksize for task 244: unlimited
  | Maximum stacksize for task 245: unlimited
  | Maximum stacksize for task 246: unlimited
  | Maximum stacksize for task 247: unlimited
  | Maximum stacksize for task 248: unlimited
  | Maximum stacksize for task 249: unlimited
  | Maximum stacksize for task 250: unlimited
  | Maximum stacksize for task 251: unlimited
  | Maximum stacksize for task 252: unlimited
  | Maximum stacksize for task 253: unlimited
  | Maximum stacksize for task 254: unlimited
  | Maximum stacksize for task 255: unlimited
  | Maximum stacksize for task 256: unlimited
  | Maximum stacksize for task 257: unlimited
  | Maximum stacksize for task 258: unlimited
  | Maximum stacksize for task 259: unlimited
  | Maximum stacksize for task 260: unlimited
  | Maximum stacksize for task 261: unlimited
  | Maximum stacksize for task 262: unlimited
  | Maximum stacksize for task 263: unlimited
  | Maximum stacksize for task 264: unlimited
  | Maximum stacksize for task 265: unlimited
  | Maximum stacksize for task 266: unlimited
  | Maximum stacksize for task 267: unlimited
  | Maximum stacksize for task 268: unlimited
  | Maximum stacksize for task 269: unlimited
  | Maximum stacksize for task 270: unlimited
  | Maximum stacksize for task 271: unlimited
  | Maximum stacksize for task 272: unlimited
  | Maximum stacksize for task 273: unlimited
  | Maximum stacksize for task 274: unlimited
  | Maximum stacksize for task 275: unlimited
  | Maximum stacksize for task 276: unlimited
  | Maximum stacksize for task 277: unlimited
  | Maximum stacksize for task 278: unlimited
  | Maximum stacksize for task 279: unlimited
  | Maximum stacksize for task 280: unlimited
  | Maximum stacksize for task 281: unlimited
  | Maximum stacksize for task 282: unlimited
  | Maximum stacksize for task 283: unlimited
  | Maximum stacksize for task 284: unlimited
  | Maximum stacksize for task 285: unlimited
  | Maximum stacksize for task 286: unlimited
  | Maximum stacksize for task 287: unlimited
  | Maximum stacksize for task 288: unlimited
  | Maximum stacksize for task 289: unlimited
  | Maximum stacksize for task 290: unlimited
  | Maximum stacksize for task 291: unlimited
  | Maximum stacksize for task 292: unlimited
  | Maximum stacksize for task 293: unlimited
  | Maximum stacksize for task 294: unlimited
  | Maximum stacksize for task 295: unlimited
  | Maximum stacksize for task 296: unlimited
  | Maximum stacksize for task 297: unlimited
  | Maximum stacksize for task 298: unlimited
  | Maximum stacksize for task 299: unlimited
  | Maximum stacksize for task 300: unlimited
  | Maximum stacksize for task 301: unlimited
  | Maximum stacksize for task 302: unlimited
  | Maximum stacksize for task 303: unlimited
  | Maximum stacksize for task 304: unlimited
  | Maximum stacksize for task 305: unlimited
  | Maximum stacksize for task 306: unlimited
  | Maximum stacksize for task 307: unlimited
  | Maximum stacksize for task 308: unlimited
  | Maximum stacksize for task 309: unlimited
  | Maximum stacksize for task 310: unlimited
  | Maximum stacksize for task 311: unlimited
  | Maximum stacksize for task 312: unlimited
  | Maximum stacksize for task 313: unlimited
  | Maximum stacksize for task 314: unlimited
  | Maximum stacksize for task 315: unlimited
  | Maximum stacksize for task 316: unlimited
  | Maximum stacksize for task 317: unlimited
  | Maximum stacksize for task 318: unlimited
  | Maximum stacksize for task 319: unlimited
  | Maximum stacksize for task 320: unlimited
  | Maximum stacksize for task 321: unlimited
  | Maximum stacksize for task 322: unlimited
  | Maximum stacksize for task 323: unlimited
  | Maximum stacksize for task 324: unlimited
  | Maximum stacksize for task 325: unlimited
  | Maximum stacksize for task 326: unlimited
  | Maximum stacksize for task 327: unlimited
  | Maximum stacksize for task 328: unlimited
  | Maximum stacksize for task 329: unlimited
  | Maximum stacksize for task 330: unlimited
  | Maximum stacksize for task 331: unlimited
  | Maximum stacksize for task 332: unlimited
  | Maximum stacksize for task 333: unlimited
  | Maximum stacksize for task 334: unlimited
  | Maximum stacksize for task 335: unlimited
  | Maximum stacksize for task 336: unlimited
  | Maximum stacksize for task 337: unlimited
  | Maximum stacksize for task 338: unlimited
  | Maximum stacksize for task 339: unlimited
  | Maximum stacksize for task 340: unlimited
  | Maximum stacksize for task 341: unlimited
  | Maximum stacksize for task 342: unlimited
  | Maximum stacksize for task 343: unlimited
  | Maximum stacksize for task 344: unlimited
  | Maximum stacksize for task 345: unlimited
  | Maximum stacksize for task 346: unlimited
  | Maximum stacksize for task 347: unlimited
  | Maximum stacksize for task 348: unlimited
  | Maximum stacksize for task 349: unlimited
  | Maximum stacksize for task 350: unlimited
  | Maximum stacksize for task 351: unlimited
  | Maximum stacksize for task 352: unlimited
  | Maximum stacksize for task 353: unlimited
  | Maximum stacksize for task 354: unlimited
  | Maximum stacksize for task 355: unlimited
  | Maximum stacksize for task 356: unlimited
  | Maximum stacksize for task 357: unlimited
  | Maximum stacksize for task 358: unlimited
  | Maximum stacksize for task 359: unlimited
  | Maximum stacksize for task 360: unlimited
  | Maximum stacksize for task 361: unlimited
  | Maximum stacksize for task 362: unlimited
  | Maximum stacksize for task 363: unlimited
  | Maximum stacksize for task 364: unlimited
  | Maximum stacksize for task 365: unlimited
  | Maximum stacksize for task 366: unlimited
  | Maximum stacksize for task 367: unlimited
  | Maximum stacksize for task 368: unlimited
  | Maximum stacksize for task 369: unlimited
  | Maximum stacksize for task 370: unlimited
  | Maximum stacksize for task 371: unlimited
  | Maximum stacksize for task 372: unlimited
  | Maximum stacksize for task 373: unlimited
  | Maximum stacksize for task 374: unlimited
  | Maximum stacksize for task 375: unlimited
  | Maximum stacksize for task 376: unlimited
  | Maximum stacksize for task 377: unlimited
  | Maximum stacksize for task 378: unlimited
  | Maximum stacksize for task 379: unlimited
  | Maximum stacksize for task 380: unlimited
  | Maximum stacksize for task 381: unlimited
  | Maximum stacksize for task 382: unlimited
  | Maximum stacksize for task 383: unlimited
  | Maximum stacksize for task 384: unlimited
  | Maximum stacksize for task 385: unlimited
  | Maximum stacksize for task 386: unlimited
  | Maximum stacksize for task 387: unlimited
  | Maximum stacksize for task 388: unlimited
  | Maximum stacksize for task 389: unlimited
  | Maximum stacksize for task 390: unlimited
  | Maximum stacksize for task 391: unlimited
  | Maximum stacksize for task 392: unlimited
  | Maximum stacksize for task 393: unlimited
  | Maximum stacksize for task 394: unlimited
  | Maximum stacksize for task 395: unlimited
  | Maximum stacksize for task 396: unlimited
  | Maximum stacksize for task 397: unlimited
  | Maximum stacksize for task 398: unlimited
  | Maximum stacksize for task 399: unlimited
  | Maximum stacksize for task 400: unlimited
  | Maximum stacksize for task 401: unlimited
  | Maximum stacksize for task 402: unlimited
  | Maximum stacksize for task 403: unlimited
  | Maximum stacksize for task 404: unlimited
  | Maximum stacksize for task 405: unlimited
  | Maximum stacksize for task 406: unlimited
  | Maximum stacksize for task 407: unlimited
  | Maximum stacksize for task 408: unlimited
  | Maximum stacksize for task 409: unlimited
  | Maximum stacksize for task 410: unlimited
  | Maximum stacksize for task 411: unlimited
  | Maximum stacksize for task 412: unlimited
  | Maximum stacksize for task 413: unlimited
  | Maximum stacksize for task 414: unlimited
  | Maximum stacksize for task 415: unlimited
  | Maximum stacksize for task 416: unlimited
  | Maximum stacksize for task 417: unlimited
  | Maximum stacksize for task 418: unlimited
  | Maximum stacksize for task 419: unlimited
  | Maximum stacksize for task 420: unlimited
  | Maximum stacksize for task 421: unlimited
  | Maximum stacksize for task 422: unlimited
  | Maximum stacksize for task 423: unlimited
  | Maximum stacksize for task 424: unlimited
  | Maximum stacksize for task 425: unlimited
  | Maximum stacksize for task 426: unlimited
  | Maximum stacksize for task 427: unlimited
  | Maximum stacksize for task 428: unlimited
  | Maximum stacksize for task 429: unlimited
  | Maximum stacksize for task 430: unlimited
  | Maximum stacksize for task 431: unlimited
  | Maximum stacksize for task 432: unlimited
  | Maximum stacksize for task 433: unlimited
  | Maximum stacksize for task 434: unlimited
  | Maximum stacksize for task 435: unlimited
  | Maximum stacksize for task 436: unlimited
  | Maximum stacksize for task 437: unlimited
  | Maximum stacksize for task 438: unlimited
  | Maximum stacksize for task 439: unlimited
  | Maximum stacksize for task 440: unlimited
  | Maximum stacksize for task 441: unlimited
  | Maximum stacksize for task 442: unlimited
  | Maximum stacksize for task 443: unlimited
  | Maximum stacksize for task 444: unlimited
  | Maximum stacksize for task 445: unlimited
[...]
   Hartree pot. SCF incomplete   :  0.460875E-06 -0.140405E-13 -0.110765E-13
   Pulay + GGA                   :  0.669006E-01 -0.153875E-13  0.503997E-14
   Van der Waals                 : -0.990118E-02 -0.115855E-09  0.756043E-16
   ----------------------------------------------------------------
   Total forces(  17)            : -0.386874E-03 -0.115884E-09 -0.241594E-14
  atom #   18
   Hellmann-Feynman              : -0.225903E-01 -0.280938E-01 -0.271324E-13
   Ionic forces                  :  0.000000E+00  0.000000E+00  0.000000E+00
   Multipole                     : -0.820215E-02 -0.231908E-01  0.780527E-16
   Hartree pot. SCF incomplete   : -0.346135E-05 -0.590462E-05  0.158995E-13
   Pulay + GGA                   :  0.396376E-01  0.565162E-01 -0.109385E-13
   Van der Waals                 : -0.101298E-01 -0.480421E-02 -0.152667E-16
   ----------------------------------------------------------------
   Total forces(  18)            : -0.128806E-02  0.421534E-03 -0.221087E-13
  atom #   19
   Hellmann-Feynman              : -0.225903E-01  0.280938E-01 -0.242100E-13
   Ionic forces                  :  0.000000E+00  0.000000E+00  0.000000E+00
   Multipole                     : -0.820215E-02  0.231908E-01  0.423715E-15
   Hartree pot. SCF incomplete   : -0.346135E-05  0.590462E-05  0.691119E-13
   Pulay + GGA                   :  0.396376E-01 -0.565162E-01 -0.587848E-13
   Van der Waals                 : -0.101298E-01  0.480421E-02 -0.116772E-15
   ----------------------------------------------------------------
   Total forces(  19)            : -0.128806E-02 -0.421533E-03 -0.135759E-13
  atom #   20
   Hellmann-Feynman              : -0.677019E-02 -0.681566E-02 -0.601062E-14
   Ionic forces                  :  0.000000E+00  0.000000E+00  0.000000E+00
   Multipole                     : -0.333581E-01 -0.339804E-01  0.340087E-15
   Hartree pot. SCF incomplete   : -0.401764E-05 -0.484587E-05  0.182484E-13
   Pulay + GGA                   :  0.464425E-01  0.520538E-01 -0.146962E-13
   Van der Waals                 : -0.351560E-02 -0.131513E-01 -0.120616E-15
   ----------------------------------------------------------------
   Total forces(  20)            :  0.279460E-02 -0.189831E-02 -0.223898E-14
  atom #   21
   Hellmann-Feynman              : -0.677019E-02  0.681566E-02  0.199694E-13
   Ionic forces                  :  0.000000E+00  0.000000E+00  0.000000E+00
   Multipole                     : -0.333581E-01  0.339804E-01  0.423715E-15
   Hartree pot. SCF incomplete   : -0.401764E-05  0.484587E-05 -0.436081E-13
   Pulay + GGA                   :  0.464425E-01 -0.520538E-01  0.424607E-13
   Van der Waals                 : -0.351561E-02  0.131513E-01  0.921787E-16
   ----------------------------------------------------------------
   Total forces(  21)            :  0.279460E-02  0.189831E-02  0.193378E-13
  atom #   22
   Hellmann-Feynman              :  0.677019E-02 -0.681566E-02  0.318359E-14
   Ionic forces                  :  0.000000E+00  0.000000E+00  0.000000E+00
   Multipole                     :  0.333581E-01 -0.339804E-01 -0.429290E-15
   Hartree pot. SCF incomplete   :  0.401764E-05 -0.484587E-05 -0.302332E-13
   Pulay + GGA                   : -0.464425E-01  0.520538E-01  0.274968E-13
   Van der Waals                 :  0.351560E-02 -0.131513E-01  0.114050E-15
   ----------------------------------------------------------------
   Total forces(  22)            : -0.279460E-02 -0.189831E-02  0.131997E-15
  atom #   23
   Hellmann-Feynman              :  0.677019E-02  0.681566E-02 -0.258154E-13
   Ionic forces                  :  0.000000E+00  0.000000E+00  0.000000E+00
   Multipole                     :  0.333581E-01  0.339804E-01  0.312211E-15
   Hartree pot. SCF incomplete   :  0.401764E-05  0.484587E-05  0.370085E-13
   Pulay + GGA                   : -0.464425E-01 -0.520538E-01 -0.222116E-13
   Van der Waals                 :  0.351558E-02  0.131513E-01 -0.864844E-16
   ----------------------------------------------------------------
   Total forces(  23)            : -0.279463E-02  0.189832E-02 -0.107927E-13
  atom #   24
   Hellmann-Feynman              :  0.225903E-01 -0.280938E-01 -0.308071E-13
   Ionic forces                  :  0.000000E+00  0.000000E+00  0.000000E+00
   Multipole                     :  0.820215E-02 -0.231908E-01 -0.669023E-16
   Hartree pot. SCF incomplete   :  0.346135E-05 -0.590462E-05  0.253066E-13
   Pulay + GGA                   : -0.396376E-01  0.565162E-01  0.243078E-13
   Van der Waals                 :  0.101298E-01 -0.480421E-02  0.168869E-15
   ----------------------------------------------------------------
   Total forces(  24)            :  0.128806E-02  0.421534E-03  0.189093E-13
  atom #   25
   Hellmann-Feynman              :  0.225903E-01  0.280938E-01 -0.190756E-13
   Ionic forces                  :  0.000000E+00  0.000000E+00  0.000000E+00
   Multipole                     :  0.820215E-02  0.231908E-01 -0.158893E-15
   Hartree pot. SCF incomplete   :  0.346135E-05  0.590462E-05  0.420966E-13
   Pulay + GGA                   : -0.396376E-01 -0.565162E-01 -0.343655E-13
   Van der Waals                 :  0.101298E-01  0.480420E-02  0.494257E-16
   ----------------------------------------------------------------
   Total forces(  25)            :  0.128807E-02 -0.421546E-03 -0.114539E-13
  atom #   26
   Hellmann-Feynman              :  0.300252E-01 -0.136391E-12 -0.522388E-13
   Ionic forces                  :  0.000000E+00  0.000000E+00  0.000000E+00
   Multipole                     :  0.273615E-01 -0.531037E-15  0.535218E-15
   Hartree pot. SCF incomplete   : -0.460875E-06  0.946383E-13  0.799208E-13
   Pulay + GGA                   : -0.669006E-01  0.938862E-13 -0.496192E-13
   Van der Waals                 :  0.990118E-02  0.491619E-09  0.213718E-16
   ----------------------------------------------------------------
   Total forces(  26)            :  0.386873E-03  0.491670E-09 -0.213806E-13

  Timings for VdW correction (Tkatchenko-Scheffler 2009 or later):
  | CPU time:        0.159 s, Wall clock time:        0.123 s.
  Removing unitary transformations (pure translations, rotations) from forces on atoms.
  Atomic forces before filtering:
  | Net force on center of mass :  -0.286701E-10  0.335898E-11  0.598122E-12 eV/A
  | Net torque on center of mass:   0.291200E-11 -0.476766E-11 -0.202227E-11 eV
  Atomic forces after filtering:
  | Net force on center of mass :  -0.161158E-17 -0.709064E-18 -0.107497E-26 eV/A
  | Net torque on center of mass:  -0.145264E-26  0.699463E-27 -0.851695E-17 eV

  Energy and forces in a compact form:
  | Total energy uncorrected      :         -0.167514538496266E+05 eV
  | Total energy corrected        :         -0.167514538496266E+05 eV  <-- do not rely on this value for anything but (periodic) metals
  | Electronic free energy        :         -0.167514538496266E+05 eV
  Total atomic forces (unitary forces cleaned) [eV/Ang]:
  |    1          0.322902976865683E-02         -0.928952752994797E-10          0.133688130220041E-11
  |    2          0.236540239849583E-02          0.530754704148852E-03         -0.806905949731525E-13
  |    3          0.236540755037546E-02         -0.530752007637896E-03          0.286351997082169E-12
  |    4         -0.302970558146763E-02         -0.140580597286600E-02         -0.289617219912843E-11
  |    5         -0.302970090336363E-02          0.140580923844886E-02         -0.212633340992158E-12
  |    6         -0.394323591807230E-02          0.234784840097589E-02          0.232264715397174E-11
  |    7         -0.394325623527301E-02         -0.234785274736744E-02          0.112247330336568E-11
  |    8          0.868254180356376E-09          0.605491245620653E-02         -0.160400989702710E-11
  |    9          0.325089757018287E-08         -0.605490119493932E-02          0.204178490222289E-11
  |   10          0.394323603283836E-02          0.234784849594529E-02         -0.691282416700562E-12
  |   11          0.394325453966640E-02         -0.234782859834896E-02         -0.175650028332453E-11
  |   12          0.302970599578471E-02         -0.140580527951149E-02          0.879840745913063E-13
  |   13          0.302970496646898E-02          0.140578646341750E-02         -0.746298260435078E-12
  |   14         -0.236540243799209E-02          0.530756145745467E-03          0.717640388006635E-12
  |   15         -0.236539292306897E-02         -0.530776658498241E-03         -0.959642962523119E-13
  |   16         -0.322903221653074E-02          0.546029319167042E-08          0.443422833241499E-12
  |   17         -0.386873747297134E-03         -0.115981086797440E-09         -0.172905017670943E-12
  |   18         -0.128806094895323E-02          0.421534364139682E-03         -0.205333139016031E-12
  |   19         -0.128805732645198E-02         -0.421533174704437E-03         -0.992905349274399E-13
  |   20          0.279460467797355E-02         -0.189831380282451E-02         -0.159019795994748E-12
  |   21          0.279459690557680E-02          0.189831410001234E-02          0.373408608798117E-13
  |   22         -0.279460466188898E-02         -0.189831378512674E-02         -0.638804429414906E-13
  |   23         -0.279463022811520E-02          0.189832470811465E-02          0.999786552411974E-13
  |   24          0.128806091459468E-02          0.421534496373590E-03          0.586145167850801E-13
  |   25          0.128807200426424E-02         -0.421546094628877E-03          0.125761126617469E-12
  |   26          0.386873254627282E-03          0.491508447630907E-09          0.103099105178087E-12

  ------------------------------------ 
  Start decomposition of the XC Energy 
  ------------------------------------ 
  X and C from original XC functional choice 
  Hartree-Fock Energy :          0.000000000 Ha              0.000000000 eV
  X Energy            :        -86.334174947 Ha          -2349.272429964 eV
  C Energy            :         -3.536563210 Ha            -96.234781306 eV
  Total XC Energy     :        -89.870738156 Ha          -2445.507211270 eV
  ------------------------------------ 
  LDA X and C from self-consistent density 
  X Energy LDA        :        -78.165358205 Ha          -2126.987616702 eV
  C Energy LDA        :         -6.831740775 Ha           -185.901125020 eV
  ------------------------------------ 
  End decomposition of the XC Energy 
  ------------------------------------ 

------------------------------------------------------------
  Relaxation / MD: End force evaluation.       :  max(cpu_time)    wall_clock(cpu1)
  | Time for this force evaluation             :        5.828 s           6.458 s

------------------------------------------------------------
  Geometry optimization: Attempting to predict improved coordinates.

  Removing unitary transformations (pure translations, rotations) from forces on atoms.
  Atomic forces before filtering:
  | Net force on center of mass :  -0.161158E-17 -0.709064E-18 -0.107497E-26 eV/A
  | Net torque on center of mass:  -0.145264E-26  0.699463E-27 -0.851695E-17 eV
  Atomic forces after filtering:
  | Net force on center of mass :  -0.130669E-18 -0.105138E-17 -0.953274E-27 eV/A
  | Net torque on center of mass:  -0.336555E-27  0.356007E-27 -0.596037E-17 eV
  Net remaining forces (excluding translations, rotations) in present geometry:
  || Forces on atoms   || =   0.605491E-02 eV/A.
  Maximum force component is  0.605491E-02 eV/A.
  Present geometry is converged.

------------------------------------------------------------
  Final atomic structure:
                         x [A]             y [A]             z [A]
            atom         8.54892308        6.35000000       11.40172108  C
            atom         7.93294717        7.59979729       11.40172108  C
            atom         7.93294717        5.10020271       11.40172108  C
            atom         6.57507063        7.92126753       11.40172108  C
            atom         6.57507063        4.77873247       11.40172108  C
            atom         6.09020127        9.26065023       11.40172108  C
            atom         6.09020127        3.43934977       11.40172108  C
            atom         5.40000000        7.04007544       11.40172108  C
            atom         5.40000000        5.65992456       11.40172108  C
            atom         4.70979873        9.26065023       11.40172108  C
            atom         4.70979873        3.43934977       11.40172108  C
            atom         4.22492937        7.92126753       11.40172108  C
            atom         4.22492937        4.77873247       11.40172108  C
            atom         2.86705283        7.59979729       11.40172108  C
            atom         2.86705283        5.10020271       11.40172108  C
            atom         2.25107692        6.35000000       11.40172108  C
            atom         9.63976506        6.35000000       11.40172108  H
            atom         8.60430373        8.46305453       11.40172108  H
            atom         8.60430373        4.23694547       11.40172108  H
            atom         6.73341626       10.13759511       11.40172108  H
            atom         6.73341626        2.56240489       11.40172108  H
            atom         4.06658374       10.13759511       11.40172108  H
            atom         4.06658374        2.56240489       11.40172108  H
            atom         2.19569627        8.46305453       11.40172108  H
            atom         2.19569627        4.23694547       11.40172108  H
            atom         1.16023494        6.35000000       11.40172108  H
------------------------------------------------------------

------------------------------------------------------------------------------
  Final output of selected total energy values:

  The following output summarizes some interesting total energy values
  at the end of a run (AFTER all relaxation, molecular dynamics, etc.).

  | Total energy of the DFT / Hartree-Fock s.c.f. calculation      :         -16751.453849627 eV
  | Final zero-broadening corrected energy (caution - metals only) :         -16751.453849627 eV
  | For reference only, the value of 1 Hartree used in FHI-aims is :             27.211384500 eV

  Before relying on these values, please be sure to understand exactly which
  total energy value is referred to by a given number. Different objects may
  all carry the same name 'total energy'. Definitions:

  Total energy of the DFT / Hartree-Fock s.c.f. calculation:
  | Note that this energy does not include ANY quantities calculated after the
  | s.c.f. cycle, in particular not ANY RPA, MP2, etc. many-body perturbation terms.

  Final zero-broadening corrected energy:
  | For metallic systems only, a broadening of the occupation numbers at the Fermi
  | level can be extrapolated back to zero broadening by an electron-gas inspired
  | formula. For all systems that are not real metals, this value can be
  | meaningless and should be avoided.

------------------------------------------------------------------------------
  Methods described in the following list of references were used in this FHI-aims run.
  If you publish the results, please make sure to cite these reference if they apply.
  FHI-aims is an academic code, and for our developers (often, Ph.D. students
  and postdocs), scientific credit in the community is essential.
  Thank you for helping us!

  For any use of FHI-aims, please cite:

    Volker Blum, Ralf Gehrke, Felix Hanke, Paula Havu, Ville Havu,
    Xinguo Ren, Karsten Reuter, and Matthias Scheffler
    'Ab initio molecular simulations with numeric atom-centered orbitals'
    Computer Physics Communications 180, 2175-2196 (2009)
    http://dx.doi.org/10.1016/j.cpc.2009.06.022


  The ELSI infrastructure was used in your run to solve the Kohn-Sham electronic structure.
  Please check out http://elsi-interchange.org to learn more.
  If scalability is important for your project, please acknowledge ELSI by citing:

    V. W-z. Yu, F. Corsetti, A. Garcia, W. P. Huhn, M. Jacquelin, W. Jia,
    B. Lange, L. Lin, J. Lu, W. Mi, A. Seifitokaldani, A. Vazquez-Mayagoitia,
    C. Yang, H. Yang, and V. Blum
    'ELSI: A unified software interface for Kohn-Sham electronic structure solvers'
    Computer Physics Communications 222, 267-285 (2018).
    http://dx.doi.org/10.1016/j.cpc.2017.09.007


  For the real-space grid partitioning and parallelization used in this calculation, please cite:

    Ville Havu, Volker Blum, Paula Havu, and Matthias Scheffler,
    'Efficient O(N) integration for all-electron electronic structure calculation'
    'using numerically tabulated basis functions'
    Journal of Computational Physics 228, 8367-8379 (2009).
    http://dx.doi.org/10.1016/j.jcp.2009.08.008

  Of course, there are many other important community references, e.g., those cited in the
  above references. Our list is limited to references that describe implementations in the
  FHI-aims code. The reason is purely practical (length of this list) - please credit others as well.

------------------------------------------------------------
          Leaving FHI-aims.
          Date     :  20221210, Time     :  101540.246

          Computational steps:
          | Number of self-consistency cycles          :           16
          | Number of SCF (re)initializations          :            1
          | Number of relaxation steps                 :            0

          Detailed time accounting                     :  max(cpu_time)    wall_clock(cpu1)
          | Total time                                 :        7.686 s           8.111 s
          | Preparation time                           :        0.652 s           0.806 s
          | Boundary condition initalization           :        0.000 s           0.000 s
          | Grid partitioning                          :        0.122 s           0.122 s
          | Preloading free-atom quantities on grid    :        0.019 s           0.019 s
          | Free-atom superposition energy             :        0.002 s           0.002 s
          | Total time for integrations                :        0.916 s           0.918 s
          | Total time for solution of K.-S. equations :        3.450 s           3.515 s
          | Total time for EV reorthonormalization     :        0.000 s           0.000 s
          | Total time for density & force components  :        0.420 s           0.420 s
          | Total time for mixing                      :        0.607 s           0.051 s
          | Total time for Hartree multipole update    :        0.094 s           0.093 s
          | Total time for Hartree multipole sum       :        0.461 s           0.461 s
          | Total time for total energy evaluation     :        0.006 s           0.003 s
          | Total time NSC force correction            :        0.045 s           0.045 s
          | Total time for scaled ZORA corrections     :        0.000 s           0.000 s
          | Total time for vdW correction              :        0.159 s           0.123 s

          Partial memory accounting:
          | Residual value for overall tracked memory usage across tasks:     0.000000 MB (should be 0.000000 MB)
          | Peak values for overall tracked memory usage:
          |   Minimum:       10.765 MB (on task  67 after allocating hessian_basis_wave)
          |   Maximum:       15.639 MB (on task  23 after allocating hessian_basis_wave)
          |   Average:       14.262 MB
          | Largest tracked array allocation:
          |   Minimum:        3.917 MB (hessian_basis_wave on task  67)
          |   Maximum:        6.841 MB (hessian_basis_wave on task   8)
          |   Average:        6.023 MB
          Note:  These values currently only include a subset of arrays which are explicitly tracked.
          The "true" memory usage will be greater.

          Have a nice day.
------------------------------------------------------------
