------------------------------------------------------------
          Invoking FHI-aims ...

          When using FHI-aims, please cite the following reference:

            Volker Blum, Ralf Gehrke, Felix Hanke, Paula Havu,
            Ville Havu, Xinguo Ren, Karsten Reuter, and Matthias Scheffler,
            'Ab Initio Molecular Simulations with Numeric Atom-Centered Orbitals',
            Computer Physics Communications 180, 2175-2196 (2009)

          In addition, many other developments in FHI-aims are likely important for
          your particular application. A partial list of references is given at the end of
          this file. Thank you for giving credit to the authors of these developments.

          For any questions about FHI-aims, please visit our slack channel at

            https://fhi-aims.slack.com

          and our main development and support site at

            https://aims-git.rz-berlin.mpg.de .

          The latter site, in particular, has a wiki to collect information, as well
          as an issue tracker to log discussions, suggest improvements, and report issues
          or bugs. https://aims-git.rz-berlin.mpg.de is also the main development site
          of the project and all new and updated code versions can be obtained there.
          Please send an email to aims-coordinators@fhi-berlin.mpg.de and we will add
          you to these sites. They are for you and everyone is welcome there.

------------------------------------------------------------



  Date     :  20221208, Time     :  235048.349
  Time zero on CPU 1             :   0.312698500000000E+01  s.
  Internal wall clock time zero  :           439775448.349  s.

  FHI-aims created a unique identifier for this run for later identification
  aims_uuid : 5C5331F4-A865-465F-A868-C012E7A96B99

  Build configuration of the current instance of FHI-aims
  -------------------------------------------------------
  FHI-aims version      : 210716.3
  Commit number         : GITDIR-NOTFOUND
  CMake host system     : Linux-4.12.14-197.78_9.1.64-cray_shasta_c
  CMake version         : 3.10.2
  Fortran compiler      : /opt/cray/pe/craype/2.7.10/bin/ftn (GNU) version 11.2.0
  Fortran compiler flags: -O2 -fallow-argument-mismatch -ffree-line-length-none
  C compiler            : /opt/cray/pe/craype/2.7.10/bin/cc (GNU) version 11.2.0
  C compiler flags      : -O2
  Using MPI
  Using ScaLAPACK
  Using LibXC
  Using i-PI
  Using RLSY
  Linking against:

  Using     1280 parallel tasks.
  Task        0 on host nid003560 reporting.
  Task        1 on host nid003560 reporting.
  Task        2 on host nid003560 reporting.
  Task        3 on host nid003560 reporting.
  Task        4 on host nid003560 reporting.
  Task        5 on host nid003560 reporting.
  Task        6 on host nid003560 reporting.
  Task        7 on host nid003560 reporting.
  Task        8 on host nid003560 reporting.
  Task        9 on host nid003560 reporting.
  Task       10 on host nid003560 reporting.
  Task       11 on host nid003560 reporting.
  Task       12 on host nid003560 reporting.
  Task       13 on host nid003560 reporting.
  Task       14 on host nid003560 reporting.
  Task       15 on host nid003560 reporting.
  Task       16 on host nid003560 reporting.
  Task       17 on host nid003560 reporting.
  Task       18 on host nid003560 reporting.
  Task       19 on host nid003560 reporting.
  Task       20 on host nid003560 reporting.
  Task       21 on host nid003560 reporting.
  Task       22 on host nid003560 reporting.
  Task       23 on host nid003560 reporting.
  Task       24 on host nid003560 reporting.
  Task       25 on host nid003560 reporting.
  Task       26 on host nid003560 reporting.
  Task       27 on host nid003560 reporting.
  Task       28 on host nid003560 reporting.
  Task       29 on host nid003560 reporting.
  Task       30 on host nid003560 reporting.
  Task       31 on host nid003560 reporting.
  Task       32 on host nid003560 reporting.
  Task       33 on host nid003560 reporting.
  Task       34 on host nid003560 reporting.
  Task       35 on host nid003560 reporting.
  Task       36 on host nid003560 reporting.
  Task       37 on host nid003560 reporting.
  Task       38 on host nid003560 reporting.
  Task       39 on host nid003560 reporting.
  Task       40 on host nid003560 reporting.
  Task       41 on host nid003560 reporting.
  Task       42 on host nid003560 reporting.
  Task       43 on host nid003560 reporting.
  Task       44 on host nid003560 reporting.
  Task       45 on host nid003560 reporting.
  Task       46 on host nid003560 reporting.
  Task       47 on host nid003560 reporting.
  Task       48 on host nid003560 reporting.
  Task       49 on host nid003560 reporting.
  Task       50 on host nid003560 reporting.
  Task       51 on host nid003560 reporting.
  Task       52 on host nid003560 reporting.
  Task       53 on host nid003560 reporting.
  Task       54 on host nid003560 reporting.
  Task       55 on host nid003560 reporting.
  Task       56 on host nid003560 reporting.
  Task       57 on host nid003560 reporting.
  Task       58 on host nid003560 reporting.
  Task       59 on host nid003560 reporting.
  Task       60 on host nid003560 reporting.
  Task       61 on host nid003560 reporting.
  Task       62 on host nid003560 reporting.
  Task       63 on host nid003560 reporting.
  Task       64 on host nid003560 reporting.
  Task       65 on host nid003560 reporting.
  Task       66 on host nid003560 reporting.
  Task       67 on host nid003560 reporting.
  Task       68 on host nid003560 reporting.
  Task       69 on host nid003560 reporting.
  Task       70 on host nid003560 reporting.
  Task       71 on host nid003560 reporting.
  Task       72 on host nid003560 reporting.
  Task       73 on host nid003560 reporting.
  Task       74 on host nid003560 reporting.
  Task       75 on host nid003560 reporting.
  Task       76 on host nid003560 reporting.
  Task       77 on host nid003560 reporting.
  Task       78 on host nid003560 reporting.
  Task       79 on host nid003560 reporting.
  Task       80 on host nid003560 reporting.
  Task       81 on host nid003560 reporting.
  Task       82 on host nid003560 reporting.
  Task       83 on host nid003560 reporting.
  Task       84 on host nid003560 reporting.
  Task       85 on host nid003560 reporting.
  Task       86 on host nid003560 reporting.
  Task       87 on host nid003560 reporting.
  Task       88 on host nid003560 reporting.
  Task       89 on host nid003560 reporting.
  Task       90 on host nid003560 reporting.
  Task       91 on host nid003560 reporting.
  Task       92 on host nid003560 reporting.
  Task       93 on host nid003560 reporting.
  Task       94 on host nid003560 reporting.
  Task       95 on host nid003560 reporting.
  Task       96 on host nid003560 reporting.
  Task       97 on host nid003560 reporting.
  Task       98 on host nid003560 reporting.
  Task       99 on host nid003560 reporting.
  Task      100 on host nid003560 reporting.
  Task      101 on host nid003560 reporting.
  Task      102 on host nid003560 reporting.
  Task      103 on host nid003560 reporting.
  Task      104 on host nid003560 reporting.
  Task      105 on host nid003560 reporting.
  Task      106 on host nid003560 reporting.
  Task      107 on host nid003560 reporting.
  Task      108 on host nid003560 reporting.
  Task      109 on host nid003560 reporting.
  Task      110 on host nid003560 reporting.
  Task      111 on host nid003560 reporting.
  Task      112 on host nid003560 reporting.
  Task      113 on host nid003560 reporting.
  Task      114 on host nid003560 reporting.
  Task      115 on host nid003560 reporting.
  Task      116 on host nid003560 reporting.
  Task      117 on host nid003560 reporting.
  Task      118 on host nid003560 reporting.
  Task      119 on host nid003560 reporting.
  Task      120 on host nid003560 reporting.
  Task      121 on host nid003560 reporting.
  Task      122 on host nid003560 reporting.
  Task      123 on host nid003560 reporting.
  Task      124 on host nid003560 reporting.
  Task      125 on host nid003560 reporting.
  Task      126 on host nid003560 reporting.
  Task      127 on host nid003560 reporting.
  Task      128 on host nid003563 reporting.
  Task      129 on host nid003563 reporting.
  Task      130 on host nid003563 reporting.
  Task      131 on host nid003563 reporting.
  Task      132 on host nid003563 reporting.
  Task      133 on host nid003563 reporting.
  Task      134 on host nid003563 reporting.
  Task      135 on host nid003563 reporting.
  Task      136 on host nid003563 reporting.
  Task      137 on host nid003563 reporting.
  Task      138 on host nid003563 reporting.
  Task      139 on host nid003563 reporting.
  Task      140 on host nid003563 reporting.
  Task      141 on host nid003563 reporting.
  Task      142 on host nid003563 reporting.
  Task      143 on host nid003563 reporting.
  Task      144 on host nid003563 reporting.
  Task      145 on host nid003563 reporting.
  Task      146 on host nid003563 reporting.
  Task      147 on host nid003563 reporting.
  Task      148 on host nid003563 reporting.
  Task      149 on host nid003563 reporting.
  Task      150 on host nid003563 reporting.
  Task      151 on host nid003563 reporting.
  Task      152 on host nid003563 reporting.
  Task      153 on host nid003563 reporting.
  Task      154 on host nid003563 reporting.
  Task      155 on host nid003563 reporting.
  Task      156 on host nid003563 reporting.
  Task      157 on host nid003563 reporting.
  Task      158 on host nid003563 reporting.
  Task      159 on host nid003563 reporting.
  Task      160 on host nid003563 reporting.
  Task      161 on host nid003563 reporting.
  Task      162 on host nid003563 reporting.
  Task      163 on host nid003563 reporting.
  Task      164 on host nid003563 reporting.
  Task      165 on host nid003563 reporting.
  Task      166 on host nid003563 reporting.
  Task      167 on host nid003563 reporting.
  Task      168 on host nid003563 reporting.
  Task      169 on host nid003563 reporting.
  Task      170 on host nid003563 reporting.
  Task      171 on host nid003563 reporting.
  Task      172 on host nid003563 reporting.
  Task      173 on host nid003563 reporting.
  Task      174 on host nid003563 reporting.
  Task      175 on host nid003563 reporting.
  Task      176 on host nid003563 reporting.
  Task      177 on host nid003563 reporting.
  Task      178 on host nid003563 reporting.
  Task      179 on host nid003563 reporting.
  Task      180 on host nid003563 reporting.
  Task      181 on host nid003563 reporting.
  Task      182 on host nid003563 reporting.
  Task      183 on host nid003563 reporting.
  Task      184 on host nid003563 reporting.
  Task      185 on host nid003563 reporting.
  Task      186 on host nid003563 reporting.
  Task      187 on host nid003563 reporting.
  Task      188 on host nid003563 reporting.
  Task      189 on host nid003563 reporting.
  Task      190 on host nid003563 reporting.
  Task      191 on host nid003563 reporting.
  Task      192 on host nid003563 reporting.
  Task      193 on host nid003563 reporting.
  Task      194 on host nid003563 reporting.
  Task      195 on host nid003563 reporting.
  Task      196 on host nid003563 reporting.
  Task      197 on host nid003563 reporting.
  Task      198 on host nid003563 reporting.
  Task      199 on host nid003563 reporting.
  Task      200 on host nid003563 reporting.
  Task      201 on host nid003563 reporting.
  Task      202 on host nid003563 reporting.
  Task      203 on host nid003563 reporting.
  Task      204 on host nid003563 reporting.
  Task      205 on host nid003563 reporting.
  Task      206 on host nid003563 reporting.
  Task      207 on host nid003563 reporting.
  Task      208 on host nid003563 reporting.
  Task      209 on host nid003563 reporting.
  Task      210 on host nid003563 reporting.
  Task      211 on host nid003563 reporting.
  Task      212 on host nid003563 reporting.
  Task      213 on host nid003563 reporting.
  Task      214 on host nid003563 reporting.
  Task      215 on host nid003563 reporting.
  Task      216 on host nid003563 reporting.
  Task      217 on host nid003563 reporting.
  Task      218 on host nid003563 reporting.
  Task      219 on host nid003563 reporting.
  Task      220 on host nid003563 reporting.
  Task      221 on host nid003563 reporting.
  Task      222 on host nid003563 reporting.
  Task      223 on host nid003563 reporting.
  Task      224 on host nid003563 reporting.
  Task      225 on host nid003563 reporting.
  Task      226 on host nid003563 reporting.
  Task      227 on host nid003563 reporting.
  Task      228 on host nid003563 reporting.
  Task      229 on host nid003563 reporting.
  Task      230 on host nid003563 reporting.
  Task      231 on host nid003563 reporting.
  Task      232 on host nid003563 reporting.
  Task      233 on host nid003563 reporting.
  Task      234 on host nid003563 reporting.
  Task      235 on host nid003563 reporting.
  Task      236 on host nid003563 reporting.
  Task      237 on host nid003563 reporting.
  Task      238 on host nid003563 reporting.
  Task      239 on host nid003563 reporting.
  Task      240 on host nid003563 reporting.
  Task      241 on host nid003563 reporting.
  Task      242 on host nid003563 reporting.
  Task      243 on host nid003563 reporting.
  Task      244 on host nid003563 reporting.
  Task      245 on host nid003563 reporting.
  Task      246 on host nid003563 reporting.
  Task      247 on host nid003563 reporting.
  Task      248 on host nid003563 reporting.
  Task      249 on host nid003563 reporting.
  Task      250 on host nid003563 reporting.
  Task      251 on host nid003563 reporting.
  Task      252 on host nid003563 reporting.
  Task      253 on host nid003563 reporting.
  Task      254 on host nid003563 reporting.
  Task      255 on host nid003563 reporting.
  Task      256 on host nid003564 reporting.
  Task      257 on host nid003564 reporting.
  Task      258 on host nid003564 reporting.
  Task      259 on host nid003564 reporting.
  Task      260 on host nid003564 reporting.
  Task      261 on host nid003564 reporting.
  Task      262 on host nid003564 reporting.
  Task      263 on host nid003564 reporting.
  Task      264 on host nid003564 reporting.
  Task      265 on host nid003564 reporting.
  Task      266 on host nid003564 reporting.
  Task      267 on host nid003564 reporting.
  Task      268 on host nid003564 reporting.
  Task      269 on host nid003564 reporting.
  Task      270 on host nid003564 reporting.
  Task      271 on host nid003564 reporting.
  Task      272 on host nid003564 reporting.
  Task      273 on host nid003564 reporting.
  Task      274 on host nid003564 reporting.
  Task      275 on host nid003564 reporting.
  Task      276 on host nid003564 reporting.
  Task      277 on host nid003564 reporting.
  Task      278 on host nid003564 reporting.
  Task      279 on host nid003564 reporting.
  Task      280 on host nid003564 reporting.
  Task      281 on host nid003564 reporting.
  Task      282 on host nid003564 reporting.
  Task      283 on host nid003564 reporting.
  Task      284 on host nid003564 reporting.
  Task      285 on host nid003564 reporting.
  Task      286 on host nid003564 reporting.
  Task      287 on host nid003564 reporting.
  Task      288 on host nid003564 reporting.
  Task      289 on host nid003564 reporting.
  Task      290 on host nid003564 reporting.
  Task      291 on host nid003564 reporting.
  Task      292 on host nid003564 reporting.
  Task      293 on host nid003564 reporting.
  Task      294 on host nid003564 reporting.
  Task      295 on host nid003564 reporting.
  Task      296 on host nid003564 reporting.
  Task      297 on host nid003564 reporting.
  Task      298 on host nid003564 reporting.
  Task      299 on host nid003564 reporting.
  Task      300 on host nid003564 reporting.
  Task      301 on host nid003564 reporting.
  Task      302 on host nid003564 reporting.
  Task      303 on host nid003564 reporting.
  Task      304 on host nid003564 reporting.
  Task      305 on host nid003564 reporting.
  Task      306 on host nid003564 reporting.
  Task      307 on host nid003564 reporting.
  Task      308 on host nid003564 reporting.
  Task      309 on host nid003564 reporting.
  Task      310 on host nid003564 reporting.
  Task      311 on host nid003564 reporting.
  Task      312 on host nid003564 reporting.
  Task      313 on host nid003564 reporting.
  Task      314 on host nid003564 reporting.
  Task      315 on host nid003564 reporting.
  Task      316 on host nid003564 reporting.
  Task      317 on host nid003564 reporting.
  Task      318 on host nid003564 reporting.
  Task      319 on host nid003564 reporting.
  Task      320 on host nid003564 reporting.
  Task      321 on host nid003564 reporting.
  Task      322 on host nid003564 reporting.
  Task      323 on host nid003564 reporting.
  Task      324 on host nid003564 reporting.
  Task      325 on host nid003564 reporting.
  Task      326 on host nid003564 reporting.
  Task      327 on host nid003564 reporting.
  Task      328 on host nid003564 reporting.
  Task      329 on host nid003564 reporting.
  Task      330 on host nid003564 reporting.
  Task      331 on host nid003564 reporting.
  Task      332 on host nid003564 reporting.
  Task      333 on host nid003564 reporting.
  Task      334 on host nid003564 reporting.
  Task      335 on host nid003564 reporting.
  Task      336 on host nid003564 reporting.
  Task      337 on host nid003564 reporting.
  Task      338 on host nid003564 reporting.
  Task      339 on host nid003564 reporting.
  Task      340 on host nid003564 reporting.
  Task      341 on host nid003564 reporting.
  Task      342 on host nid003564 reporting.
  Task      343 on host nid003564 reporting.
  Task      344 on host nid003564 reporting.
  Task      345 on host nid003564 reporting.
  Task      346 on host nid003564 reporting.
  Task      347 on host nid003564 reporting.
  Task      348 on host nid003564 reporting.
  Task      349 on host nid003564 reporting.
  Task      350 on host nid003564 reporting.
  Task      351 on host nid003564 reporting.
  Task      352 on host nid003564 reporting.
  Task      353 on host nid003564 reporting.
  Task      354 on host nid003564 reporting.
  Task      355 on host nid003564 reporting.
  Task      356 on host nid003564 reporting.
  Task      357 on host nid003564 reporting.
  Task      358 on host nid003564 reporting.
  Task      359 on host nid003564 reporting.
  Task      360 on host nid003564 reporting.
  Task      361 on host nid003564 reporting.
  Task      362 on host nid003564 reporting.
  Task      363 on host nid003564 reporting.
  Task      364 on host nid003564 reporting.
  Task      365 on host nid003564 reporting.
  Task      366 on host nid003564 reporting.
  Task      367 on host nid003564 reporting.
  Task      368 on host nid003564 reporting.
  Task      369 on host nid003564 reporting.
  Task      370 on host nid003564 reporting.
  Task      371 on host nid003564 reporting.
  Task      372 on host nid003564 reporting.
  Task      373 on host nid003564 reporting.
  Task      374 on host nid003564 reporting.
  Task      375 on host nid003564 reporting.
  Task      376 on host nid003564 reporting.
  Task      377 on host nid003564 reporting.
  Task      378 on host nid003564 reporting.
  Task      379 on host nid003564 reporting.
  Task      380 on host nid003564 reporting.
  Task      381 on host nid003564 reporting.
  Task      382 on host nid003564 reporting.
  Task      383 on host nid003564 reporting.
  Task      384 on host nid003592 reporting.
  Task      385 on host nid003592 reporting.
  Task      386 on host nid003592 reporting.
  Task      387 on host nid003592 reporting.
  Task      388 on host nid003592 reporting.
  Task      389 on host nid003592 reporting.
  Task      390 on host nid003592 reporting.
  Task      391 on host nid003592 reporting.
  Task      392 on host nid003592 reporting.
  Task      393 on host nid003592 reporting.
  Task      394 on host nid003592 reporting.
  Task      395 on host nid003592 reporting.
  Task      396 on host nid003592 reporting.
  Task      397 on host nid003592 reporting.
  Task      398 on host nid003592 reporting.
  Task      399 on host nid003592 reporting.
  Task      400 on host nid003592 reporting.
  Task      401 on host nid003592 reporting.
  Task      402 on host nid003592 reporting.
  Task      403 on host nid003592 reporting.
  Task      404 on host nid003592 reporting.
  Task      405 on host nid003592 reporting.
  Task      406 on host nid003592 reporting.
  Task      407 on host nid003592 reporting.
  Task      408 on host nid003592 reporting.
  Task      409 on host nid003592 reporting.
  Task      410 on host nid003592 reporting.
  Task      411 on host nid003592 reporting.
  Task      412 on host nid003592 reporting.
  Task      413 on host nid003592 reporting.
  Task      414 on host nid003592 reporting.
  Task      415 on host nid003592 reporting.
  Task      416 on host nid003592 reporting.
  Task      417 on host nid003592 reporting.
  Task      418 on host nid003592 reporting.
  Task      419 on host nid003592 reporting.
  Task      420 on host nid003592 reporting.
  Task      421 on host nid003592 reporting.
  Task      422 on host nid003592 reporting.
  Task      423 on host nid003592 reporting.
  Task      424 on host nid003592 reporting.
  Task      425 on host nid003592 reporting.
  Task      426 on host nid003592 reporting.
  Task      427 on host nid003592 reporting.
  Task      428 on host nid003592 reporting.
  Task      429 on host nid003592 reporting.
  Task      430 on host nid003592 reporting.
  Task      431 on host nid003592 reporting.
  Task      432 on host nid003592 reporting.
  Task      433 on host nid003592 reporting.
  Task      434 on host nid003592 reporting.
  Task      435 on host nid003592 reporting.
  Task      436 on host nid003592 reporting.
  Task      437 on host nid003592 reporting.
  Task      438 on host nid003592 reporting.
  Task      439 on host nid003592 reporting.
  Task      440 on host nid003592 reporting.
  Task      441 on host nid003592 reporting.
  Task      442 on host nid003592 reporting.
  Task      443 on host nid003592 reporting.
  Task      444 on host nid003592 reporting.
  Task      445 on host nid003592 reporting.
  Task      446 on host nid003592 reporting.
  Task      447 on host nid003592 reporting.
  Task      448 on host nid003592 reporting.
  Task      449 on host nid003592 reporting.
  Task      450 on host nid003592 reporting.
  Task      451 on host nid003592 reporting.
  Task      452 on host nid003592 reporting.
  Task      453 on host nid003592 reporting.
  Task      454 on host nid003592 reporting.
  Task      455 on host nid003592 reporting.
  Task      456 on host nid003592 reporting.
  Task      457 on host nid003592 reporting.
  Task      458 on host nid003592 reporting.
  Task      459 on host nid003592 reporting.
  Task      460 on host nid003592 reporting.
  Task      461 on host nid003592 reporting.
  Task      462 on host nid003592 reporting.
  Task      463 on host nid003592 reporting.
  Task      464 on host nid003592 reporting.
  Task      465 on host nid003592 reporting.
  Task      466 on host nid003592 reporting.
  Task      467 on host nid003592 reporting.
  Task      468 on host nid003592 reporting.
  Task      469 on host nid003592 reporting.
  Task      470 on host nid003592 reporting.
  Task      471 on host nid003592 reporting.
  Task      472 on host nid003592 reporting.
  Task      473 on host nid003592 reporting.
  Task      474 on host nid003592 reporting.
  Task      475 on host nid003592 reporting.
  Task      476 on host nid003592 reporting.
  Task      477 on host nid003592 reporting.
  Task      478 on host nid003592 reporting.
  Task      479 on host nid003592 reporting.
  Task      480 on host nid003592 reporting.
  Task      481 on host nid003592 reporting.
  Task      482 on host nid003592 reporting.
  Task      483 on host nid003592 reporting.
  Task      484 on host nid003592 reporting.
  Task      485 on host nid003592 reporting.
  Task      486 on host nid003592 reporting.
  Task      487 on host nid003592 reporting.
  Task      488 on host nid003592 reporting.
  Task      489 on host nid003592 reporting.
  Task      490 on host nid003592 reporting.
  Task      491 on host nid003592 reporting.
  Task      492 on host nid003592 reporting.
  Task      493 on host nid003592 reporting.
  Task      494 on host nid003592 reporting.
  Task      495 on host nid003592 reporting.
  Task      496 on host nid003592 reporting.
  Task      497 on host nid003592 reporting.
  Task      498 on host nid003592 reporting.
  Task      499 on host nid003592 reporting.
  Task      500 on host nid003592 reporting.
  Task      501 on host nid003592 reporting.
  Task      502 on host nid003592 reporting.
  Task      503 on host nid003592 reporting.
  Task      504 on host nid003592 reporting.
  Task      505 on host nid003592 reporting.
  Task      506 on host nid003592 reporting.
  Task      507 on host nid003592 reporting.
  Task      508 on host nid003592 reporting.
  Task      509 on host nid003592 reporting.
  Task      510 on host nid003592 reporting.
  Task      511 on host nid003592 reporting.
  Task      512 on host nid003593 reporting.
  Task      513 on host nid003593 reporting.
  Task      514 on host nid003593 reporting.
  Task      515 on host nid003593 reporting.
  Task      516 on host nid003593 reporting.
  Task      517 on host nid003593 reporting.
  Task      518 on host nid003593 reporting.
  Task      519 on host nid003593 reporting.
  Task      520 on host nid003593 reporting.
  Task      521 on host nid003593 reporting.
  Task      522 on host nid003593 reporting.
  Task      523 on host nid003593 reporting.
  Task      524 on host nid003593 reporting.
  Task      525 on host nid003593 reporting.
  Task      526 on host nid003593 reporting.
  Task      527 on host nid003593 reporting.
  Task      528 on host nid003593 reporting.
  Task      529 on host nid003593 reporting.
  Task      530 on host nid003593 reporting.
  Task      531 on host nid003593 reporting.
  Task      532 on host nid003593 reporting.
  Task      533 on host nid003593 reporting.
  Task      534 on host nid003593 reporting.
  Task      535 on host nid003593 reporting.
  Task      536 on host nid003593 reporting.
  Task      537 on host nid003593 reporting.
  Task      538 on host nid003593 reporting.
  Task      539 on host nid003593 reporting.
  Task      540 on host nid003593 reporting.
  Task      541 on host nid003593 reporting.
  Task      542 on host nid003593 reporting.
  Task      543 on host nid003593 reporting.
  Task      544 on host nid003593 reporting.
  Task      545 on host nid003593 reporting.
  Task      546 on host nid003593 reporting.
  Task      547 on host nid003593 reporting.
  Task      548 on host nid003593 reporting.
  Task      549 on host nid003593 reporting.
  Task      550 on host nid003593 reporting.
  Task      551 on host nid003593 reporting.
  Task      552 on host nid003593 reporting.
  Task      553 on host nid003593 reporting.
  Task      554 on host nid003593 reporting.
  Task      555 on host nid003593 reporting.
  Task      556 on host nid003593 reporting.
  Task      557 on host nid003593 reporting.
  Task      558 on host nid003593 reporting.
  Task      559 on host nid003593 reporting.
  Task      560 on host nid003593 reporting.
  Task      561 on host nid003593 reporting.
  Task      562 on host nid003593 reporting.
  Task      563 on host nid003593 reporting.
  Task      564 on host nid003593 reporting.
  Task      565 on host nid003593 reporting.
  Task      566 on host nid003593 reporting.
  Task      567 on host nid003593 reporting.
  Task      568 on host nid003593 reporting.
  Task      569 on host nid003593 reporting.
  Task      570 on host nid003593 reporting.
  Task      571 on host nid003593 reporting.
  Task      572 on host nid003593 reporting.
  Task      573 on host nid003593 reporting.
  Task      574 on host nid003593 reporting.
  Task      575 on host nid003593 reporting.
  Task      576 on host nid003593 reporting.
  Task      577 on host nid003593 reporting.
  Task      578 on host nid003593 reporting.
  Task      579 on host nid003593 reporting.
  Task      580 on host nid003593 reporting.
  Task      581 on host nid003593 reporting.
  Task      582 on host nid003593 reporting.
  Task      583 on host nid003593 reporting.
  Task      584 on host nid003593 reporting.
  Task      585 on host nid003593 reporting.
  Task      586 on host nid003593 reporting.
  Task      587 on host nid003593 reporting.
  Task      588 on host nid003593 reporting.
  Task      589 on host nid003593 reporting.
  Task      590 on host nid003593 reporting.
  Task      591 on host nid003593 reporting.
  Task      592 on host nid003593 reporting.
  Task      593 on host nid003593 reporting.
  Task      594 on host nid003593 reporting.
  Task      595 on host nid003593 reporting.
  Task      596 on host nid003593 reporting.
  Task      597 on host nid003593 reporting.
  Task      598 on host nid003593 reporting.
  Task      599 on host nid003593 reporting.
  Task      600 on host nid003593 reporting.
  Task      601 on host nid003593 reporting.
  Task      602 on host nid003593 reporting.
  Task      603 on host nid003593 reporting.
  Task      604 on host nid003593 reporting.
  Task      605 on host nid003593 reporting.
  Task      606 on host nid003593 reporting.
  Task      607 on host nid003593 reporting.
  Task      608 on host nid003593 reporting.
  Task      609 on host nid003593 reporting.
  Task      610 on host nid003593 reporting.
  Task      611 on host nid003593 reporting.
  Task      612 on host nid003593 reporting.
  Task      613 on host nid003593 reporting.
  Task      614 on host nid003593 reporting.
  Task      615 on host nid003593 reporting.
  Task      616 on host nid003593 reporting.
  Task      617 on host nid003593 reporting.
  Task      618 on host nid003593 reporting.
  Task      619 on host nid003593 reporting.
  Task      620 on host nid003593 reporting.
  Task      621 on host nid003593 reporting.
  Task      622 on host nid003593 reporting.
  Task      623 on host nid003593 reporting.
  Task      624 on host nid003593 reporting.
  Task      625 on host nid003593 reporting.
  Task      626 on host nid003593 reporting.
  Task      627 on host nid003593 reporting.
  Task      628 on host nid003593 reporting.
  Task      629 on host nid003593 reporting.
  Task      630 on host nid003593 reporting.
  Task      631 on host nid003593 reporting.
  Task      632 on host nid003593 reporting.
  Task      633 on host nid003593 reporting.
  Task      634 on host nid003593 reporting.
  Task      635 on host nid003593 reporting.
  Task      636 on host nid003593 reporting.
  Task      637 on host nid003593 reporting.
  Task      638 on host nid003593 reporting.
  Task      639 on host nid003593 reporting.
  Task      640 on host nid003596 reporting.
  Task      641 on host nid003596 reporting.
  Task      642 on host nid003596 reporting.
  Task      643 on host nid003596 reporting.
  Task      644 on host nid003596 reporting.
  Task      645 on host nid003596 reporting.
  Task      646 on host nid003596 reporting.
  Task      647 on host nid003596 reporting.
  Task      648 on host nid003596 reporting.
  Task      649 on host nid003596 reporting.
  Task      650 on host nid003596 reporting.
  Task      651 on host nid003596 reporting.
  Task      652 on host nid003596 reporting.
  Task      653 on host nid003596 reporting.
  Task      654 on host nid003596 reporting.
  Task      655 on host nid003596 reporting.
  Task      656 on host nid003596 reporting.
  Task      657 on host nid003596 reporting.
  Task      658 on host nid003596 reporting.
  Task      659 on host nid003596 reporting.
  Task      660 on host nid003596 reporting.
  Task      661 on host nid003596 reporting.
  Task      662 on host nid003596 reporting.
  Task      663 on host nid003596 reporting.
  Task      664 on host nid003596 reporting.
  Task      665 on host nid003596 reporting.
  Task      666 on host nid003596 reporting.
  Task      667 on host nid003596 reporting.
  Task      668 on host nid003596 reporting.
  Task      669 on host nid003596 reporting.
  Task      670 on host nid003596 reporting.
  Task      671 on host nid003596 reporting.
  Task      672 on host nid003596 reporting.
  Task      673 on host nid003596 reporting.
  Task      674 on host nid003596 reporting.
  Task      675 on host nid003596 reporting.
  Task      676 on host nid003596 reporting.
  Task      677 on host nid003596 reporting.
  Task      678 on host nid003596 reporting.
  Task      679 on host nid003596 reporting.
  Task      680 on host nid003596 reporting.
  Task      681 on host nid003596 reporting.
  Task      682 on host nid003596 reporting.
  Task      683 on host nid003596 reporting.
  Task      684 on host nid003596 reporting.
  Task      685 on host nid003596 reporting.
  Task      686 on host nid003596 reporting.
  Task      687 on host nid003596 reporting.
  Task      688 on host nid003596 reporting.
  Task      689 on host nid003596 reporting.
  Task      690 on host nid003596 reporting.
  Task      691 on host nid003596 reporting.
  Task      692 on host nid003596 reporting.
  Task      693 on host nid003596 reporting.
  Task      694 on host nid003596 reporting.
  Task      695 on host nid003596 reporting.
  Task      696 on host nid003596 reporting.
  Task      697 on host nid003596 reporting.
  Task      698 on host nid003596 reporting.
  Task      699 on host nid003596 reporting.
  Task      700 on host nid003596 reporting.
  Task      701 on host nid003596 reporting.
  Task      702 on host nid003596 reporting.
  Task      703 on host nid003596 reporting.
  Task      704 on host nid003596 reporting.
  Task      705 on host nid003596 reporting.
  Task      706 on host nid003596 reporting.
  Task      707 on host nid003596 reporting.
  Task      708 on host nid003596 reporting.
  Task      709 on host nid003596 reporting.
  Task      710 on host nid003596 reporting.
  Task      711 on host nid003596 reporting.
  Task      712 on host nid003596 reporting.
  Task      713 on host nid003596 reporting.
  Task      714 on host nid003596 reporting.
  Task      715 on host nid003596 reporting.
  Task      716 on host nid003596 reporting.
  Task      717 on host nid003596 reporting.
  Task      718 on host nid003596 reporting.
  Task      719 on host nid003596 reporting.
  Task      720 on host nid003596 reporting.
  Task      721 on host nid003596 reporting.
  Task      722 on host nid003596 reporting.
  Task      723 on host nid003596 reporting.
  Task      724 on host nid003596 reporting.
  Task      725 on host nid003596 reporting.
  Task      726 on host nid003596 reporting.
  Task      727 on host nid003596 reporting.
  Task      728 on host nid003596 reporting.
  Task      729 on host nid003596 reporting.
  Task      730 on host nid003596 reporting.
  Task      731 on host nid003596 reporting.
  Task      732 on host nid003596 reporting.
  Task      733 on host nid003596 reporting.
  Task      734 on host nid003596 reporting.
  Task      735 on host nid003596 reporting.
  Task      736 on host nid003596 reporting.
  Task      737 on host nid003596 reporting.
  Task      738 on host nid003596 reporting.
  Task      739 on host nid003596 reporting.
  Task      740 on host nid003596 reporting.
  Task      741 on host nid003596 reporting.
  Task      742 on host nid003596 reporting.
  Task      743 on host nid003596 reporting.
  Task      744 on host nid003596 reporting.
  Task      745 on host nid003596 reporting.
  Task      746 on host nid003596 reporting.
  Task      747 on host nid003596 reporting.
  Task      748 on host nid003596 reporting.
  Task      749 on host nid003596 reporting.
  Task      750 on host nid003596 reporting.
  Task      751 on host nid003596 reporting.
  Task      752 on host nid003596 reporting.
  Task      753 on host nid003596 reporting.
  Task      754 on host nid003596 reporting.
  Task      755 on host nid003596 reporting.
  Task      756 on host nid003596 reporting.
  Task      757 on host nid003596 reporting.
  Task      758 on host nid003596 reporting.
  Task      759 on host nid003596 reporting.
  Task      760 on host nid003596 reporting.
  Task      761 on host nid003596 reporting.
  Task      762 on host nid003596 reporting.
  Task      763 on host nid003596 reporting.
  Task      764 on host nid003596 reporting.
  Task      765 on host nid003596 reporting.
  Task      766 on host nid003596 reporting.
  Task      767 on host nid003596 reporting.
  Task      768 on host nid003610 reporting.
  Task      769 on host nid003610 reporting.
  Task      770 on host nid003610 reporting.
  Task      771 on host nid003610 reporting.
  Task      772 on host nid003610 reporting.
  Task      773 on host nid003610 reporting.
  Task      774 on host nid003610 reporting.
  Task      775 on host nid003610 reporting.
  Task      776 on host nid003610 reporting.
  Task      777 on host nid003610 reporting.
  Task      778 on host nid003610 reporting.
  Task      779 on host nid003610 reporting.
  Task      780 on host nid003610 reporting.
  Task      781 on host nid003610 reporting.
  Task      782 on host nid003610 reporting.
  Task      783 on host nid003610 reporting.
  Task      784 on host nid003610 reporting.
  Task      785 on host nid003610 reporting.
  Task      786 on host nid003610 reporting.
  Task      787 on host nid003610 reporting.
  Task      788 on host nid003610 reporting.
  Task      789 on host nid003610 reporting.
  Task      790 on host nid003610 reporting.
  Task      791 on host nid003610 reporting.
  Task      792 on host nid003610 reporting.
  Task      793 on host nid003610 reporting.
  Task      794 on host nid003610 reporting.
  Task      795 on host nid003610 reporting.
  Task      796 on host nid003610 reporting.
  Task      797 on host nid003610 reporting.
  Task      798 on host nid003610 reporting.
  Task      799 on host nid003610 reporting.
  Task      800 on host nid003610 reporting.
  Task      801 on host nid003610 reporting.
  Task      802 on host nid003610 reporting.
  Task      803 on host nid003610 reporting.
  Task      804 on host nid003610 reporting.
  Task      805 on host nid003610 reporting.
  Task      806 on host nid003610 reporting.
  Task      807 on host nid003610 reporting.
  Task      808 on host nid003610 reporting.
  Task      809 on host nid003610 reporting.
  Task      810 on host nid003610 reporting.
  Task      811 on host nid003610 reporting.
  Task      812 on host nid003610 reporting.
  Task      813 on host nid003610 reporting.
  Task      814 on host nid003610 reporting.
  Task      815 on host nid003610 reporting.
  Task      816 on host nid003610 reporting.
  Task      817 on host nid003610 reporting.
  Task      818 on host nid003610 reporting.
  Task      819 on host nid003610 reporting.
  Task      820 on host nid003610 reporting.
  Task      821 on host nid003610 reporting.
  Task      822 on host nid003610 reporting.
  Task      823 on host nid003610 reporting.
  Task      824 on host nid003610 reporting.
  Task      825 on host nid003610 reporting.
  Task      826 on host nid003610 reporting.
  Task      827 on host nid003610 reporting.
  Task      828 on host nid003610 reporting.
  Task      829 on host nid003610 reporting.
  Task      830 on host nid003610 reporting.
  Task      831 on host nid003610 reporting.
  Task      832 on host nid003610 reporting.
  Task      833 on host nid003610 reporting.
  Task      834 on host nid003610 reporting.
  Task      835 on host nid003610 reporting.
  Task      836 on host nid003610 reporting.
  Task      837 on host nid003610 reporting.
  Task      838 on host nid003610 reporting.
  Task      839 on host nid003610 reporting.
  Task      840 on host nid003610 reporting.
  Task      841 on host nid003610 reporting.
  Task      842 on host nid003610 reporting.
  Task      843 on host nid003610 reporting.
  Task      844 on host nid003610 reporting.
  Task      845 on host nid003610 reporting.
  Task      846 on host nid003610 reporting.
  Task      847 on host nid003610 reporting.
  Task      848 on host nid003610 reporting.
  Task      849 on host nid003610 reporting.
  Task      850 on host nid003610 reporting.
  Task      851 on host nid003610 reporting.
  Task      852 on host nid003610 reporting.
  Task      853 on host nid003610 reporting.
  Task      854 on host nid003610 reporting.
  Task      855 on host nid003610 reporting.
  Task      856 on host nid003610 reporting.
  Task      857 on host nid003610 reporting.
  Task      858 on host nid003610 reporting.
  Task      859 on host nid003610 reporting.
  Task      860 on host nid003610 reporting.
  Task      861 on host nid003610 reporting.
  Task      862 on host nid003610 reporting.
  Task      863 on host nid003610 reporting.
  Task      864 on host nid003610 reporting.
  Task      865 on host nid003610 reporting.
  Task      866 on host nid003610 reporting.
  Task      867 on host nid003610 reporting.
  Task      868 on host nid003610 reporting.
  Task      869 on host nid003610 reporting.
  Task      870 on host nid003610 reporting.
  Task      871 on host nid003610 reporting.
  Task      872 on host nid003610 reporting.
  Task      873 on host nid003610 reporting.
  Task      874 on host nid003610 reporting.
  Task      875 on host nid003610 reporting.
  Task      876 on host nid003610 reporting.
  Task      877 on host nid003610 reporting.
  Task      878 on host nid003610 reporting.
  Task      879 on host nid003610 reporting.
  Task      880 on host nid003610 reporting.
  Task      881 on host nid003610 reporting.
  Task      882 on host nid003610 reporting.
  Task      883 on host nid003610 reporting.
  Task      884 on host nid003610 reporting.
  Task      885 on host nid003610 reporting.
  Task      886 on host nid003610 reporting.
  Task      887 on host nid003610 reporting.
  Task      888 on host nid003610 reporting.
  Task      889 on host nid003610 reporting.
  Task      890 on host nid003610 reporting.
  Task      891 on host nid003610 reporting.
  Task      892 on host nid003610 reporting.
  Task      893 on host nid003610 reporting.
  Task      894 on host nid003610 reporting.
  Task      895 on host nid003610 reporting.
  Task      896 on host nid005457 reporting.
  Task      897 on host nid005457 reporting.
  Task      898 on host nid005457 reporting.
  Task      899 on host nid005457 reporting.
  Task      900 on host nid005457 reporting.
  Task      901 on host nid005457 reporting.
  Task      902 on host nid005457 reporting.
  Task      903 on host nid005457 reporting.
  Task      904 on host nid005457 reporting.
  Task      905 on host nid005457 reporting.
  Task      906 on host nid005457 reporting.
  Task      907 on host nid005457 reporting.
  Task      908 on host nid005457 reporting.
  Task      909 on host nid005457 reporting.
  Task      910 on host nid005457 reporting.
  Task      911 on host nid005457 reporting.
  Task      912 on host nid005457 reporting.
  Task      913 on host nid005457 reporting.
  Task      914 on host nid005457 reporting.
  Task      915 on host nid005457 reporting.
  Task      916 on host nid005457 reporting.
  Task      917 on host nid005457 reporting.
  Task      918 on host nid005457 reporting.
  Task      919 on host nid005457 reporting.
  Task      920 on host nid005457 reporting.
  Task      921 on host nid005457 reporting.
  Task      922 on host nid005457 reporting.
  Task      923 on host nid005457 reporting.
  Task      924 on host nid005457 reporting.
  Task      925 on host nid005457 reporting.
  Task      926 on host nid005457 reporting.
  Task      927 on host nid005457 reporting.
  Task      928 on host nid005457 reporting.
  Task      929 on host nid005457 reporting.
  Task      930 on host nid005457 reporting.
  Task      931 on host nid005457 reporting.
  Task      932 on host nid005457 reporting.
  Task      933 on host nid005457 reporting.
  Task      934 on host nid005457 reporting.
  Task      935 on host nid005457 reporting.
  Task      936 on host nid005457 reporting.
  Task      937 on host nid005457 reporting.
  Task      938 on host nid005457 reporting.
  Task      939 on host nid005457 reporting.
  Task      940 on host nid005457 reporting.
  Task      941 on host nid005457 reporting.
  Task      942 on host nid005457 reporting.
  Task      943 on host nid005457 reporting.
  Task      944 on host nid005457 reporting.
  Task      945 on host nid005457 reporting.
  Task      946 on host nid005457 reporting.
  Task      947 on host nid005457 reporting.
  Task      948 on host nid005457 reporting.
  Task      949 on host nid005457 reporting.
  Task      950 on host nid005457 reporting.
  Task      951 on host nid005457 reporting.
  Task      952 on host nid005457 reporting.
  Task      953 on host nid005457 reporting.
  Task      954 on host nid005457 reporting.
  Task      955 on host nid005457 reporting.
  Task      956 on host nid005457 reporting.
  Task      957 on host nid005457 reporting.
  Task      958 on host nid005457 reporting.
  Task      959 on host nid005457 reporting.
  Task      960 on host nid005457 reporting.
  Task      961 on host nid005457 reporting.
  Task      962 on host nid005457 reporting.
  Task      963 on host nid005457 reporting.
  Task      964 on host nid005457 reporting.
  Task      965 on host nid005457 reporting.
  Task      966 on host nid005457 reporting.
  Task      967 on host nid005457 reporting.
  Task      968 on host nid005457 reporting.
  Task      969 on host nid005457 reporting.
  Task      970 on host nid005457 reporting.
  Task      971 on host nid005457 reporting.
  Task      972 on host nid005457 reporting.
  Task      973 on host nid005457 reporting.
  Task      974 on host nid005457 reporting.
  Task      975 on host nid005457 reporting.
  Task      976 on host nid005457 reporting.
  Task      977 on host nid005457 reporting.
  Task      978 on host nid005457 reporting.
  Task      979 on host nid005457 reporting.
  Task      980 on host nid005457 reporting.
  Task      981 on host nid005457 reporting.
  Task      982 on host nid005457 reporting.
  Task      983 on host nid005457 reporting.
  Task      984 on host nid005457 reporting.
  Task      985 on host nid005457 reporting.
  Task      986 on host nid005457 reporting.
  Task      987 on host nid005457 reporting.
  Task      988 on host nid005457 reporting.
  Task      989 on host nid005457 reporting.
  Task      990 on host nid005457 reporting.
  Task      991 on host nid005457 reporting.
  Task      992 on host nid005457 reporting.
  Task      993 on host nid005457 reporting.
  Task      994 on host nid005457 reporting.
  Task      995 on host nid005457 reporting.
  Task      996 on host nid005457 reporting.
  Task      997 on host nid005457 reporting.
  Task      998 on host nid005457 reporting.
  Task      999 on host nid005457 reporting.
  Task     1000 on host nid005457 reporting.
  Task     1001 on host nid005457 reporting.
  Task     1002 on host nid005457 reporting.
  Task     1003 on host nid005457 reporting.
  Task     1004 on host nid005457 reporting.
  Task     1005 on host nid005457 reporting.
  Task     1006 on host nid005457 reporting.
  Task     1007 on host nid005457 reporting.
  Task     1008 on host nid005457 reporting.
  Task     1009 on host nid005457 reporting.
  Task     1010 on host nid005457 reporting.
  Task     1011 on host nid005457 reporting.
  Task     1012 on host nid005457 reporting.
  Task     1013 on host nid005457 reporting.
  Task     1014 on host nid005457 reporting.
  Task     1015 on host nid005457 reporting.
  Task     1016 on host nid005457 reporting.
  Task     1017 on host nid005457 reporting.
  Task     1018 on host nid005457 reporting.
  Task     1019 on host nid005457 reporting.
  Task     1020 on host nid005457 reporting.
  Task     1021 on host nid005457 reporting.
  Task     1022 on host nid005457 reporting.
  Task     1023 on host nid005457 reporting.
  Task     1024 on host nid005458 reporting.
  Task     1025 on host nid005458 reporting.
  Task     1026 on host nid005458 reporting.
  Task     1027 on host nid005458 reporting.
  Task     1028 on host nid005458 reporting.
  Task     1029 on host nid005458 reporting.
  Task     1030 on host nid005458 reporting.
  Task     1031 on host nid005458 reporting.
  Task     1032 on host nid005458 reporting.
  Task     1033 on host nid005458 reporting.
  Task     1034 on host nid005458 reporting.
  Task     1035 on host nid005458 reporting.
  Task     1036 on host nid005458 reporting.
  Task     1037 on host nid005458 reporting.
  Task     1038 on host nid005458 reporting.
  Task     1039 on host nid005458 reporting.
  Task     1040 on host nid005458 reporting.
  Task     1041 on host nid005458 reporting.
  Task     1042 on host nid005458 reporting.
  Task     1043 on host nid005458 reporting.
  Task     1044 on host nid005458 reporting.
  Task     1045 on host nid005458 reporting.
  Task     1046 on host nid005458 reporting.
  Task     1047 on host nid005458 reporting.
  Task     1048 on host nid005458 reporting.
  Task     1049 on host nid005458 reporting.
  Task     1050 on host nid005458 reporting.
  Task     1051 on host nid005458 reporting.
  Task     1052 on host nid005458 reporting.
  Task     1053 on host nid005458 reporting.
  Task     1054 on host nid005458 reporting.
  Task     1055 on host nid005458 reporting.
  Task     1056 on host nid005458 reporting.
  Task     1057 on host nid005458 reporting.
  Task     1058 on host nid005458 reporting.
  Task     1059 on host nid005458 reporting.
  Task     1060 on host nid005458 reporting.
  Task     1061 on host nid005458 reporting.
  Task     1062 on host nid005458 reporting.
  Task     1063 on host nid005458 reporting.
  Task     1064 on host nid005458 reporting.
  Task     1065 on host nid005458 reporting.
  Task     1066 on host nid005458 reporting.
  Task     1067 on host nid005458 reporting.
  Task     1068 on host nid005458 reporting.
  Task     1069 on host nid005458 reporting.
  Task     1070 on host nid005458 reporting.
  Task     1071 on host nid005458 reporting.
  Task     1072 on host nid005458 reporting.
  Task     1073 on host nid005458 reporting.
  Task     1074 on host nid005458 reporting.
  Task     1075 on host nid005458 reporting.
  Task     1076 on host nid005458 reporting.
  Task     1077 on host nid005458 reporting.
  Task     1078 on host nid005458 reporting.
  Task     1079 on host nid005458 reporting.
  Task     1080 on host nid005458 reporting.
  Task     1081 on host nid005458 reporting.
  Task     1082 on host nid005458 reporting.
  Task     1083 on host nid005458 reporting.
  Task     1084 on host nid005458 reporting.
  Task     1085 on host nid005458 reporting.
  Task     1086 on host nid005458 reporting.
  Task     1087 on host nid005458 reporting.
  Task     1088 on host nid005458 reporting.
  Task     1089 on host nid005458 reporting.
  Task     1090 on host nid005458 reporting.
  Task     1091 on host nid005458 reporting.
  Task     1092 on host nid005458 reporting.
  Task     1093 on host nid005458 reporting.
  Task     1094 on host nid005458 reporting.
  Task     1095 on host nid005458 reporting.
  Task     1096 on host nid005458 reporting.
  Task     1097 on host nid005458 reporting.
  Task     1098 on host nid005458 reporting.
  Task     1099 on host nid005458 reporting.
  Task     1100 on host nid005458 reporting.
  Task     1101 on host nid005458 reporting.
  Task     1102 on host nid005458 reporting.
  Task     1103 on host nid005458 reporting.
  Task     1104 on host nid005458 reporting.
  Task     1105 on host nid005458 reporting.
  Task     1106 on host nid005458 reporting.
  Task     1107 on host nid005458 reporting.
  Task     1108 on host nid005458 reporting.
  Task     1109 on host nid005458 reporting.
  Task     1110 on host nid005458 reporting.
  Task     1111 on host nid005458 reporting.
  Task     1112 on host nid005458 reporting.
  Task     1113 on host nid005458 reporting.
  Task     1114 on host nid005458 reporting.
  Task     1115 on host nid005458 reporting.
  Task     1116 on host nid005458 reporting.
  Task     1117 on host nid005458 reporting.
  Task     1118 on host nid005458 reporting.
  Task     1119 on host nid005458 reporting.
  Task     1120 on host nid005458 reporting.
  Task     1121 on host nid005458 reporting.
  Task     1122 on host nid005458 reporting.
  Task     1123 on host nid005458 reporting.
  Task     1124 on host nid005458 reporting.
  Task     1125 on host nid005458 reporting.
  Task     1126 on host nid005458 reporting.
  Task     1127 on host nid005458 reporting.
  Task     1128 on host nid005458 reporting.
  Task     1129 on host nid005458 reporting.
  Task     1130 on host nid005458 reporting.
  Task     1131 on host nid005458 reporting.
  Task     1132 on host nid005458 reporting.
  Task     1133 on host nid005458 reporting.
  Task     1134 on host nid005458 reporting.
  Task     1135 on host nid005458 reporting.
  Task     1136 on host nid005458 reporting.
  Task     1137 on host nid005458 reporting.
  Task     1138 on host nid005458 reporting.
  Task     1139 on host nid005458 reporting.
  Task     1140 on host nid005458 reporting.
  Task     1141 on host nid005458 reporting.
  Task     1142 on host nid005458 reporting.
  Task     1143 on host nid005458 reporting.
  Task     1144 on host nid005458 reporting.
  Task     1145 on host nid005458 reporting.
  Task     1146 on host nid005458 reporting.
  Task     1147 on host nid005458 reporting.
  Task     1148 on host nid005458 reporting.
  Task     1149 on host nid005458 reporting.
  Task     1150 on host nid005458 reporting.
  Task     1151 on host nid005458 reporting.
  Task     1152 on host nid005459 reporting.
  Task     1153 on host nid005459 reporting.
  Task     1154 on host nid005459 reporting.
  Task     1155 on host nid005459 reporting.
  Task     1156 on host nid005459 reporting.
  Task     1157 on host nid005459 reporting.
  Task     1158 on host nid005459 reporting.
  Task     1159 on host nid005459 reporting.
  Task     1160 on host nid005459 reporting.
  Task     1161 on host nid005459 reporting.
  Task     1162 on host nid005459 reporting.
  Task     1163 on host nid005459 reporting.
  Task     1164 on host nid005459 reporting.
  Task     1165 on host nid005459 reporting.
  Task     1166 on host nid005459 reporting.
  Task     1167 on host nid005459 reporting.
  Task     1168 on host nid005459 reporting.
  Task     1169 on host nid005459 reporting.
  Task     1170 on host nid005459 reporting.
  Task     1171 on host nid005459 reporting.
  Task     1172 on host nid005459 reporting.
  Task     1173 on host nid005459 reporting.
  Task     1174 on host nid005459 reporting.
  Task     1175 on host nid005459 reporting.
  Task     1176 on host nid005459 reporting.
  Task     1177 on host nid005459 reporting.
  Task     1178 on host nid005459 reporting.
  Task     1179 on host nid005459 reporting.
  Task     1180 on host nid005459 reporting.
  Task     1181 on host nid005459 reporting.
  Task     1182 on host nid005459 reporting.
  Task     1183 on host nid005459 reporting.
  Task     1184 on host nid005459 reporting.
  Task     1185 on host nid005459 reporting.
  Task     1186 on host nid005459 reporting.
  Task     1187 on host nid005459 reporting.
  Task     1188 on host nid005459 reporting.
  Task     1189 on host nid005459 reporting.
  Task     1190 on host nid005459 reporting.
  Task     1191 on host nid005459 reporting.
  Task     1192 on host nid005459 reporting.
  Task     1193 on host nid005459 reporting.
  Task     1194 on host nid005459 reporting.
  Task     1195 on host nid005459 reporting.
  Task     1196 on host nid005459 reporting.
  Task     1197 on host nid005459 reporting.
  Task     1198 on host nid005459 reporting.
  Task     1199 on host nid005459 reporting.
  Task     1200 on host nid005459 reporting.
  Task     1201 on host nid005459 reporting.
  Task     1202 on host nid005459 reporting.
  Task     1203 on host nid005459 reporting.
  Task     1204 on host nid005459 reporting.
  Task     1205 on host nid005459 reporting.
  Task     1206 on host nid005459 reporting.
  Task     1207 on host nid005459 reporting.
  Task     1208 on host nid005459 reporting.
  Task     1209 on host nid005459 reporting.
  Task     1210 on host nid005459 reporting.
  Task     1211 on host nid005459 reporting.
  Task     1212 on host nid005459 reporting.
  Task     1213 on host nid005459 reporting.
  Task     1214 on host nid005459 reporting.
  Task     1215 on host nid005459 reporting.
  Task     1216 on host nid005459 reporting.
  Task     1217 on host nid005459 reporting.
  Task     1218 on host nid005459 reporting.
  Task     1219 on host nid005459 reporting.
  Task     1220 on host nid005459 reporting.
  Task     1221 on host nid005459 reporting.
  Task     1222 on host nid005459 reporting.
  Task     1223 on host nid005459 reporting.
  Task     1224 on host nid005459 reporting.
  Task     1225 on host nid005459 reporting.
  Task     1226 on host nid005459 reporting.
  Task     1227 on host nid005459 reporting.
  Task     1228 on host nid005459 reporting.
  Task     1229 on host nid005459 reporting.
  Task     1230 on host nid005459 reporting.
  Task     1231 on host nid005459 reporting.
  Task     1232 on host nid005459 reporting.
  Task     1233 on host nid005459 reporting.
  Task     1234 on host nid005459 reporting.
  Task     1235 on host nid005459 reporting.
  Task     1236 on host nid005459 reporting.
  Task     1237 on host nid005459 reporting.
  Task     1238 on host nid005459 reporting.
  Task     1239 on host nid005459 reporting.
  Task     1240 on host nid005459 reporting.
  Task     1241 on host nid005459 reporting.
  Task     1242 on host nid005459 reporting.
  Task     1243 on host nid005459 reporting.
  Task     1244 on host nid005459 reporting.
  Task     1245 on host nid005459 reporting.
  Task     1246 on host nid005459 reporting.
  Task     1247 on host nid005459 reporting.
  Task     1248 on host nid005459 reporting.
  Task     1249 on host nid005459 reporting.
  Task     1250 on host nid005459 reporting.
  Task     1251 on host nid005459 reporting.
  Task     1252 on host nid005459 reporting.
  Task     1253 on host nid005459 reporting.
  Task     1254 on host nid005459 reporting.
  Task     1255 on host nid005459 reporting.
  Task     1256 on host nid005459 reporting.
  Task     1257 on host nid005459 reporting.
  Task     1258 on host nid005459 reporting.
  Task     1259 on host nid005459 reporting.
  Task     1260 on host nid005459 reporting.
  Task     1261 on host nid005459 reporting.
  Task     1262 on host nid005459 reporting.
  Task     1263 on host nid005459 reporting.
  Task     1264 on host nid005459 reporting.
  Task     1265 on host nid005459 reporting.
  Task     1266 on host nid005459 reporting.
  Task     1267 on host nid005459 reporting.
  Task     1268 on host nid005459 reporting.
  Task     1269 on host nid005459 reporting.
  Task     1270 on host nid005459 reporting.
  Task     1271 on host nid005459 reporting.
  Task     1272 on host nid005459 reporting.
  Task     1273 on host nid005459 reporting.
  Task     1274 on host nid005459 reporting.
  Task     1275 on host nid005459 reporting.
  Task     1276 on host nid005459 reporting.
  Task     1277 on host nid005459 reporting.
  Task     1278 on host nid005459 reporting.
  Task     1279 on host nid005459 reporting.

  Performing system and environment tests:
  | Environment variable OMP_NUM_THREADS correctly set to 1.
  | Checking for ScaLAPACK...
  | Testing pdtran()...
  | All pdtran() tests passed.

  Obtaining array dimensions for all initial allocations:
  
  -----------------------------------------------------------------------
  Parsing control.in (first pass over file, find array dimensions only).
  The contents of control.in will be repeated verbatim below
  unless switched off by setting 'verbatim_writeout .false.' .
  in the first line of control.in .
  -----------------------------------------------------------------------
  
  #===============================================================================
  # FHI-aims file: ./graph_ads/Cu_100/3A_full_go/control.in
  # Created using the Atomic Simulation Environment (ASE)
  # Thu Nov 24 11:24:23 2022
  #===============================================================================
  xc                                 pbe
  k_grid                             6 6 1
  spin                               none
  relativistic                       atomic_zora scalar
  
  occupation_type                    gaussian 0.1
  sc_accuracy_rho                    1e-05
  sc_accuracy_eev                    0.001
  sc_accuracy_etot                   1e-06
  sc_iter_limit                      500
  
  many_body_dispersion_nl            beta=0.81
  
  relax_geometry                     bfgs 0.01
  stress_for_relaxation              analytical
  #===============================================================================
  
  ################################################################################
  #
  #  FHI-aims code project
  #  VB, Fritz-Haber Institut, 2010
  #
  #  Suggested "light" defaults for Cu atom (to be pasted into control.in file)
  #  Be sure to double-check any results obtained with these settings for post-processing,
  #  e.g., with the "tight" defaults and larger basis sets.
  #
  ################################################################################
    species        Cu1
  #
      nucleus      29
      mass         63.546
  #
      l_hartree    4
  #
      cut_pot      3.5  1.5  1.0
      basis_dep_cutoff    1e-4
  #
      radial_base        53 5.0
      radial_multiplier  1
      angular_grids       specified
        division   0.5231   50
        division   0.8642  110
        division   1.1767  194
        division   1.5041  302
  #      division   1.9293  434
  #      division   2.0065  590
  #      division   2.0466  770
  #      division   2.0877  974
  #      division   2.4589 1202
        outer_grid   302
  ################################################################################
  #
  #  Definition of "minimal" basis
  #
  ################################################################################
  #     valence basis states
      valence      4  s   1.
      valence      3  p   6.
      valence      3  d  10.
  #     ion occupancy
      ion_occ      4  s   0.
      ion_occ      3  p   6.
      ion_occ      3  d   9.
  ################################################################################
  #
  #  Suggested additional basis functions. For production calculations,
  #  uncomment them one after another (the most important basis functions are
  #  listed first).
  #
  #  Constructed for dimers: 1.8, 2.2, 3.0, 4.0 Ang
  #
  ################################################################################
  #  "First tier" - improvements: -211.42 meV to -9.17 meV
       ionic 4 p auto
       hydro 4 f 7.4
       hydro 3 s 2.6
       hydro 3 d 5
  #     hydro 5 g 10.4
  #  "Second tier" - improvements: -2.49 meV to -1.08 meV
  #     hydro 4 p 5.8
  #     hydro 3 d 2.7
  #     hydro 6 h 15.2
  #     hydro 5 s 10.8
  #     hydro 4 f 16
  #  "Third tier" - improvements: -0.50 meV to -0.21 meV
  #     hydro 4 d 6
  #     hydro 3 p 2.4
  #     hydro 4 f 6.4
  #     hydro 3 s 6.8
  #     hydro 5 g 11.2
  #  "Fourth tier" - improvements: -0.13 meV to -0.05 meV
  #     hydro 4 p 7
  #     hydro 4 s 4
  #     hydro 6 h 14
  #     hydro 4 d 8.6
  #     hydro 5 f 15.2
  
  hirshfeld_param 59.000 10.900 2.4000
  ################################################################################
  #
  #  FHI-aims code project
  #  Volker Blum, Fritz Haber Institute Berlin, 2010
  #
  #  Suggested "tight" defaults for Cu atom (to be pasted into control.in file)
  #
  ################################################################################
    species        Cu
  #
      nucleus      29
      mass         63.546
  #
      l_hartree    6
  #
      cut_pot      4.0  2.0  1.0
      basis_dep_cutoff    1e-4
  #
      radial_base        53 7.0
      radial_multiplier  2
      angular_grids       specified
        division   0.3478   50
        division   0.6638  110
        division   0.9718  194
        division   1.1992  302
        division   1.5920  434
  #      division   1.8557  590
  #      division   2.0466  770
  #      division   2.0877  974
  #      division   2.4589 1202
        outer_grid   434
  ################################################################################
  #
  #  Definition of "minimal" basis
  #
  ################################################################################
  #     valence basis states
      valence      4  s   1.
      valence      3  p   6.
      valence      3  d  10.
  #     ion occupancy
      ion_occ      4  s   0.
      ion_occ      3  p   6.
      ion_occ      3  d   9.
  ################################################################################
  #
  #  Suggested additional basis functions. For production calculations,
  #  uncomment them one after another (the most important basis functions are
  #  listed first).
  #
  #  Constructed for dimers: 1.8, 2.2, 3.0, 4.0 Ang
  #
  ################################################################################
  #  "First tier" - improvements: -211.42 meV to -9.17 meV
       ionic 4 p auto
       hydro 4 f 7.4
       hydro 3 s 2.6
       hydro 3 d 5
       hydro 5 g 10.4
  #  "Second tier" - improvements: -2.49 meV to -1.08 meV
  #     hydro 4 p 5.8
  #     hydro 3 d 2.7
  #     hydro 6 h 15.2
  #     hydro 5 s 10.8
  #     hydro 4 f 16
  #  "Third tier" - improvements: -0.50 meV to -0.21 meV
  #     hydro 4 d 6
  #     hydro 3 p 2.4
  #     hydro 4 f 6.4
  #     hydro 3 s 6.8
  #     hydro 5 g 11.2
  #  "Fourth tier" - improvements: -0.13 meV to -0.05 meV
  #     hydro 4 p 7
  #     hydro 4 s 4
  #     hydro 6 h 14
  #     hydro 4 d 8.6
  #     hydro 5 f 15.2
  
  hirshfeld_param 59.000 10.900 2.4000
  ################################################################################
  #
  #  FHI-aims code project
  #  Volker Blum, Fritz Haber Institute Berlin, 2009
  #
  #  Suggested "tight" defaults for C atom (to be pasted into control.in file)
  #
  ################################################################################
    species        C
  #     global species definitions
      nucleus             6
      mass                12.0107
  #
      l_hartree           6
  #
      cut_pot             4.0  2.0  1.0
      basis_dep_cutoff    1e-4
  #
      radial_base         34 7.0
      radial_multiplier   2
      angular_grids specified
        division   0.2187   50
        division   0.4416  110
        division   0.6335  194
        division   0.7727  302
        division   0.8772  434
  #      division   0.9334  590
  #      division   0.9924  770
  #      division   1.0230  974
  #      division   1.5020 1202
  #     outer_grid  974
        outer_grid  434
  ################################################################################
  #
  #  Definition of "minimal" basis
  #
  ################################################################################
  #     valence basis states
      valence      2  s   2.
      valence      2  p   2.
  #     ion occupancy
      ion_occ      2  s   1.
      ion_occ      2  p   1.
  ################################################################################
  #
  #  Suggested additional basis functions. For production calculations,
  #  uncomment them one after another (the most important basis functions are
  #  listed first).
  #
  #  Constructed for dimers: 1.0 A, 1.25 A, 1.5 A, 2.0 A, 3.0 A
  #
  ################################################################################
  #  "First tier" - improvements: -1214.57 meV to -155.61 meV
       hydro 2 p 1.7
       hydro 3 d 6
       hydro 2 s 4.9
  #  "Second tier" - improvements: -67.75 meV to -5.23 meV
       hydro 4 f 9.8
       hydro 3 p 5.2
       hydro 3 s 4.3
       hydro 5 g 14.4
       hydro 3 d 6.2
  #  "Third tier" - improvements: -2.43 meV to -0.60 meV
  #     hydro 2 p 5.6
  #     hydro 2 s 1.4
  #     hydro 3 d 4.9
  #     hydro 4 f 11.2
  #  "Fourth tier" - improvements: -0.39 meV to -0.18 meV
  #     hydro 2 p 2.1
  #     hydro 5 g 16.4
  #     hydro 4 d 13.2
  #     hydro 3 s 13.6
  #     hydro 4 f 17.6
  #  Further basis functions - improvements: -0.08 meV and below
  #     hydro 3 s 2
  #     hydro 3 p 6
  #     hydro 4 d 20
  ################################################################################
  #
  # For methods that use the localized form of the "resolution of identity" for
  # the two-electron Coulomb operator (RI_method LVL), particularly Hartree-Fock and
  # hybrid density functional calculations, the highest accuracy can be obtained by
  # uncommenting the line beginning with "for_aux"  below, thus adding an extra g radial
  # function to the construction of the product basis set for the expansion.
  # See Ref. New J. Phys. 17, 093020 (2015) for more information, particularly Figs. 1 and 6.
  #
  ################################################################################
  #
  # for_aux hydro 5 g 6.0
  ################################################################################
  #
  #  FHI-aims code project
  #  Volker Blum, Fritz Haber Institute Berlin, 2009
  #
  #  Suggested "tight" defaults for H atom (to be pasted into control.in file)
  #
  ################################################################################
    species        H
  #     global species definitions
      nucleus             1
      mass                1.00794
  #
      l_hartree           6
  #
      cut_pot             4.0  2.0  1.0
      basis_dep_cutoff    1e-4
  #
      radial_base         24 7.0
      radial_multiplier   2
      angular_grids       specified
        division   0.1930   50
        division   0.3175  110
        division   0.4293  194
        division   0.5066  302
        division   0.5626  434
  #      division   0.5922  590
  #      division   0.6227  974
  #      division   0.6868 1202
  #      outer_grid  770
        outer_grid  434
  ################################################################################
  #
  #  Definition of "minimal" basis
  #
  ################################################################################
  #     valence basis states
      valence      1  s   1.
  #     ion occupancy
      ion_occ      1  s   0.5
  ################################################################################
  #
  #  Suggested additional basis functions. For production calculations,
  #  uncomment them one after another (the most important basis functions are
  #  listed first).
  #
  #  Basis constructed for dimers: 0.5 A, 0.7 A, 1.0 A, 1.5 A, 2.5 A
  #
  ################################################################################
  #  "First tier" - improvements: -1014.90 meV to -62.69 meV
       hydro 2 s 2.1
       hydro 2 p 3.5
  #  "Second tier" - improvements: -12.89 meV to -1.83 meV
       hydro 1 s 0.85
       hydro 2 p 3.7
       hydro 2 s 1.2
       hydro 3 d 7
  #  "Third tier" - improvements: -0.25 meV to -0.12 meV
  #     hydro 4 f 11.2
  #     hydro 3 p 4.8
  #     hydro 4 d 9
  #     hydro 3 s 3.2
  ################################################################################
  #
  # For methods that use the localized form of the "resolution of identity" for
  # the two-electron Coulomb operator (RI_method LVL), particularly Hartree-Fock and
  # hybrid density functional calculations, the highest accuracy can be obtained by
  # uncommenting the line beginning with "for_aux"  below, thus adding an extra g radial
  # function to the construction of the product basis set for the expansion.
  # See Ref. New J. Phys. 17, 093020 (2015) for more information, particularly Figs. 1 and 6.
  #
  ################################################################################
  #
  # for_aux hydro 5 g 6.0
  
  -----------------------------------------------------------------------
  Completed first pass over input file control.in .
  -----------------------------------------------------------------------
  
  
  -----------------------------------------------------------------------
  Parsing geometry.in (first pass over file, find array dimensions only).
  The contents of geometry.in will be repeated verbatim below
  unless switched off by setting 'verbatim_writeout .false.' .
  in the first line of geometry.in .
  -----------------------------------------------------------------------
  
  #
  # This is the geometry file that corresponds to the current relaxation step.
  # If you do not want this file to be written, set the "write_restart_geometry" flag to .false.
  #  aims_uuid : 791EE347-8E89-432B-AE5B-C8032EE9014B
  #
  lattice_vector     12.71674440      0.00000000      0.00000000
  lattice_vector      0.00000000     12.71674440      0.00000000
  lattice_vector      0.00000000      0.00000000    100.00000000
  atom       0.00000000      0.00000000      0.00000000 Cu
    constrain_relaxation .true.
  atom      -1.27167444     -1.27167444      1.79841924 Cu
    constrain_relaxation .true.
  atom       0.00000000      0.00000000      3.59683848 Cu
    constrain_relaxation .true.
  atom      -1.27167444     -1.27167444      5.39525772 Cu
    constrain_relaxation .true.
  atom       0.00000000      0.00000000      7.19367696 Cu
    constrain_relaxation .true.
  atom      -1.27167444     -1.27167444      8.99209620 Cu
    constrain_relaxation .true.
  atom       0.00591125     -0.00107722     10.80573336 Cu
  atom      -1.29093000     -1.34124939     12.55688974 Cu
  atom       0.00000000      2.54334888      0.00000000 Cu
    constrain_relaxation .true.
  atom      -1.27167444      1.27167444      1.79841924 Cu
    constrain_relaxation .true.
  atom       0.00000000      2.54334888      3.59683848 Cu
    constrain_relaxation .true.
  atom      -1.27167444      1.27167444      5.39525772 Cu
    constrain_relaxation .true.
  atom       0.00000000      2.54334888      7.19367696 Cu
    constrain_relaxation .true.
  atom      -1.27167444      1.27167444      8.99209620 Cu
    constrain_relaxation .true.
  atom      -0.03051678      2.54269064     10.82550676 Cu
  atom      -1.31425948      1.16773946     12.63758610 Cu
  atom       0.00000000      5.08669776      0.00000000 Cu
    constrain_relaxation .true.
  atom      -1.27167444      3.81502332      1.79841924 Cu
    constrain_relaxation .true.
  atom       0.00000000      5.08669776      3.59683848 Cu
    constrain_relaxation .true.
  atom      -1.27167444      3.81502332      5.39525772 Cu
    constrain_relaxation .true.
  atom       0.00000000      5.08669776      7.19367696 Cu
    constrain_relaxation .true.
  atom      -1.27167444      3.81502332      8.99209620 Cu
    constrain_relaxation .true.
  atom       0.00164274      5.08989478     10.80035733 Cu
  atom      -1.31818136      3.88658227     12.62443248 Cu
  atom       0.00000000      7.63004664      0.00000000 Cu
    constrain_relaxation .true.
  atom      -1.27167444      6.35837220      1.79841924 Cu
    constrain_relaxation .true.
  atom       0.00000000      7.63004664      3.59683848 Cu
    constrain_relaxation .true.
  atom      -1.27167444      6.35837220      5.39525772 Cu
    constrain_relaxation .true.
  atom       0.00000000      7.63004664      7.19367696 Cu
    constrain_relaxation .true.
  atom      -1.27167444      6.35837220      8.99209620 Cu
    constrain_relaxation .true.
  atom       0.00837345      7.62216135     10.80018216 Cu
  atom      -1.28275761      6.40607289     12.57905832 Cu
  atom       0.00000000     10.17339552      0.00000000 Cu
    constrain_relaxation .true.
  atom      -1.27167444      8.90172108      1.79841924 Cu
    constrain_relaxation .true.
  atom       0.00000000     10.17339552      3.59683848 Cu
    constrain_relaxation .true.
  atom      -1.27167444      8.90172108      5.39525772 Cu
    constrain_relaxation .true.
  atom       0.00000000     10.17339552      7.19367696 Cu
    constrain_relaxation .true.
  atom      -1.27167444      8.90172108      8.99209620 Cu
    constrain_relaxation .true.
  atom       0.01208547     10.18305378     10.80113807 Cu
  atom      -1.26710588      8.89503400     12.55963432 Cu
  atom       2.54334888      0.00000000      0.00000000 Cu
    constrain_relaxation .true.
  atom       1.27167444     -1.27167444      1.79841924 Cu
    constrain_relaxation .true.
  atom       2.54334888      0.00000000      3.59683848 Cu
    constrain_relaxation .true.
  atom       1.27167444     -1.27167444      5.39525772 Cu
    constrain_relaxation .true.
  atom       2.54334888      0.00000000      7.19367696 Cu
    constrain_relaxation .true.
  atom       1.27167444     -1.27167444      8.99209620 Cu
    constrain_relaxation .true.
  atom       2.54211809      0.00363290     10.80678194 Cu
  atom       1.26185032     -1.27745155     12.67493822 Cu
  atom       2.54334888      2.54334888      0.00000000 Cu
    constrain_relaxation .true.
  atom       1.27167444      1.27167444      1.79841924 Cu
    constrain_relaxation .true.
  atom       2.54334888      2.54334888      3.59683848 Cu
    constrain_relaxation .true.
  atom       1.27167444      1.27167444      5.39525772 Cu
    constrain_relaxation .true.
  atom       2.54334888      2.54334888      7.19367696 Cu
    constrain_relaxation .true.
  atom       1.27167444      1.27167444      8.99209620 Cu
    constrain_relaxation .true.
  atom       2.56136276      2.55019086     10.79623359 Cu
  atom       1.29562479      1.28551170     12.52625830 Cu
  atom       2.54334888      5.08669776      0.00000000 Cu
    constrain_relaxation .true.
  atom       1.27167444      3.81502332      1.79841924 Cu
    constrain_relaxation .true.
  atom       2.54334888      5.08669776      3.59683848 Cu
    constrain_relaxation .true.
  atom       1.27167444      3.81502332      5.39525772 Cu
    constrain_relaxation .true.
  atom       2.54334888      5.08669776      7.19367696 Cu
    constrain_relaxation .true.
  atom       1.27167444      3.81502332      8.99209620 Cu
    constrain_relaxation .true.
  atom       2.54385370      5.08913587     10.80569709 Cu
  atom       1.28806055      3.82831283     12.52399002 Cu
  atom       2.54334888      7.63004664      0.00000000 Cu
    constrain_relaxation .true.
  atom       1.27167444      6.35837220      1.79841924 Cu
    constrain_relaxation .true.
  atom       2.54334888      7.63004664      3.59683848 Cu
    constrain_relaxation .true.
  atom       1.27167444      6.35837220      5.39525772 Cu
    constrain_relaxation .true.
  atom       2.54334888      7.63004664      7.19367696 Cu
    constrain_relaxation .true.
  atom       1.27167444      6.35837220      8.99209620 Cu
    constrain_relaxation .true.
  atom       2.52831043      7.62201748     10.80696373 Cu
  atom       1.26161621      6.39070123     12.65836170 Cu
  atom       2.54334888     10.17339552      0.00000000 Cu
    constrain_relaxation .true.
  atom       1.27167444      8.90172108      1.79841924 Cu
    constrain_relaxation .true.
[...]
       atom_frac         0.10000000        0.70000000        0.01798419  Cu
       atom_frac         0.20000000        0.80000000        0.03596838  Cu
       atom_frac         0.10000000        0.70000000        0.05395258  Cu
       atom_frac         0.20000000        0.80000000        0.07193677  Cu
       atom_frac         0.10000000        0.70000000        0.08992096  Cu
       atom_frac         0.19878818        0.80121812        0.10808941  Cu
       atom_frac         0.09980918        0.70076904        0.12570341  Cu
       atom_frac         0.40000000        0.00000000        0.00000000  Cu
       atom_frac         0.30000000       -0.10000000        0.01798419  Cu
       atom_frac         0.40000000        0.00000000        0.03596838  Cu
       atom_frac         0.30000000       -0.10000000        0.05395258  Cu
       atom_frac         0.40000000        0.00000000        0.07193677  Cu
       atom_frac         0.30000000       -0.10000000        0.08992096  Cu
       atom_frac         0.39925749        0.00103164        0.10802367  Cu
       atom_frac         0.30123384       -0.10229723        0.12542954  Cu
       atom_frac         0.40000000        0.20000000        0.00000000  Cu
       atom_frac         0.30000000        0.10000000        0.01798419  Cu
       atom_frac         0.40000000        0.20000000        0.03596838  Cu
       atom_frac         0.30000000        0.10000000        0.05395258  Cu
       atom_frac         0.40000000        0.20000000        0.07193677  Cu
       atom_frac         0.30000000        0.10000000        0.08992096  Cu
       atom_frac         0.39861999        0.20012415        0.10812050  Cu
       atom_frac         0.30338533        0.09796390        0.12649839  Cu
       atom_frac         0.40000000        0.40000000        0.00000000  Cu
       atom_frac         0.30000000        0.30000000        0.01798419  Cu
       atom_frac         0.40000000        0.40000000        0.03596838  Cu
       atom_frac         0.30000000        0.30000000        0.05395258  Cu
       atom_frac         0.40000000        0.40000000        0.07193677  Cu
       atom_frac         0.30000000        0.30000000        0.08992096  Cu
       atom_frac         0.39924544        0.39884935        0.10804121  Cu
       atom_frac         0.30348280        0.30229493        0.12662990  Cu
       atom_frac         0.40000000        0.60000000        0.00000000  Cu
       atom_frac         0.30000000        0.50000000        0.01798419  Cu
       atom_frac         0.40000000        0.60000000        0.03596838  Cu
       atom_frac         0.30000000        0.50000000        0.05395258  Cu
       atom_frac         0.40000000        0.60000000        0.07193677  Cu
       atom_frac         0.30000000        0.50000000        0.08992096  Cu
       atom_frac         0.40019035        0.60014944        0.10787387  Cu
       atom_frac         0.30133086        0.50243763        0.12542070  Cu
       atom_frac         0.40000000        0.80000000        0.00000000  Cu
       atom_frac         0.30000000        0.70000000        0.01798419  Cu
       atom_frac         0.40000000        0.80000000        0.03596838  Cu
       atom_frac         0.30000000        0.70000000        0.05395258  Cu
       atom_frac         0.40000000        0.80000000        0.07193677  Cu
       atom_frac         0.30000000        0.70000000        0.08992096  Cu
       atom_frac         0.40011879        0.79982489        0.10787655  Cu
       atom_frac         0.29926981        0.70001235        0.12563593  Cu
       atom_frac         0.60000000        0.00000000        0.00000000  Cu
       atom_frac         0.50000000       -0.10000000        0.01798419  Cu
       atom_frac         0.60000000        0.00000000        0.03596838  Cu
       atom_frac         0.50000000       -0.10000000        0.05395258  Cu
       atom_frac         0.60000000        0.00000000        0.07193677  Cu
       atom_frac         0.50000000       -0.10000000        0.08992096  Cu
       atom_frac         0.60007543       -0.00045138        0.10783855  Cu
       atom_frac         0.49996773       -0.09955019        0.12562389  Cu
       atom_frac         0.60000000        0.20000000        0.00000000  Cu
       atom_frac         0.50000000        0.10000000        0.01798419  Cu
       atom_frac         0.60000000        0.20000000        0.03596838  Cu
       atom_frac         0.50000000        0.10000000        0.05395258  Cu
       atom_frac         0.60000000        0.20000000        0.07193677  Cu
       atom_frac         0.50000000        0.10000000        0.08992096  Cu
       atom_frac         0.60044714        0.19992977        0.10785879  Cu
       atom_frac         0.50206928        0.09989440        0.12550233  Cu
       atom_frac         0.60000000        0.40000000        0.00000000  Cu
       atom_frac         0.50000000        0.30000000        0.01798419  Cu
       atom_frac         0.60000000        0.40000000        0.03596838  Cu
       atom_frac         0.50000000        0.30000000        0.05395258  Cu
       atom_frac         0.60000000        0.40000000        0.07193677  Cu
       atom_frac         0.50000000        0.30000000        0.08992096  Cu
       atom_frac         0.60011744        0.40048647        0.10783304  Cu
       atom_frac         0.50228924        0.30007780        0.12549530  Cu
       atom_frac         0.60000000        0.60000000        0.00000000  Cu
       atom_frac         0.50000000        0.50000000        0.01798419  Cu
       atom_frac         0.60000000        0.60000000        0.03596838  Cu
       atom_frac         0.50000000        0.50000000        0.05395258  Cu
       atom_frac         0.60000000        0.60000000        0.07193677  Cu
       atom_frac         0.50000000        0.50000000        0.08992096  Cu
       atom_frac         0.59993570        0.60034179        0.10794008  Cu
       atom_frac         0.50010665        0.49952271        0.12561917  Cu
       atom_frac         0.60000000        0.80000000        0.00000000  Cu
       atom_frac         0.50000000        0.70000000        0.01798419  Cu
       atom_frac         0.60000000        0.80000000        0.03596838  Cu
       atom_frac         0.50000000        0.70000000        0.05395258  Cu
       atom_frac         0.60000000        0.80000000        0.07193677  Cu
       atom_frac         0.50000000        0.70000000        0.08992096  Cu
       atom_frac         0.59978134        0.79964237        0.10794034  Cu
       atom_frac         0.49971702        0.69997208        0.12566858  Cu
       atom_frac         0.80000000        0.00000000        0.00000000  Cu
       atom_frac         0.70000000       -0.10000000        0.01798419  Cu
       atom_frac         0.80000000        0.00000000        0.03596838  Cu
       atom_frac         0.70000000       -0.10000000        0.05395258  Cu
       atom_frac         0.80000000        0.00000000        0.07193677  Cu
       atom_frac         0.70000000       -0.10000000        0.08992096  Cu
       atom_frac         0.80060710       -0.00012898        0.10796378  Cu
       atom_frac         0.69947614       -0.10048110        0.12554507  Cu
       atom_frac         0.80000000        0.20000000        0.00000000  Cu
       atom_frac         0.70000000        0.10000000        0.01798419  Cu
       atom_frac         0.80000000        0.20000000        0.03596838  Cu
       atom_frac         0.70000000        0.10000000        0.05395258  Cu
       atom_frac         0.80000000        0.20000000        0.07193677  Cu
       atom_frac         0.70000000        0.10000000        0.08992096  Cu
       atom_frac         0.80173415        0.19967847        0.10821589  Cu
       atom_frac         0.69809200        0.09913370        0.12554575  Cu
       atom_frac         0.80000000        0.40000000        0.00000000  Cu
       atom_frac         0.70000000        0.30000000        0.01798419  Cu
       atom_frac         0.80000000        0.40000000        0.03596838  Cu
       atom_frac         0.70000000        0.30000000        0.05395258  Cu
       atom_frac         0.80000000        0.40000000        0.07193677  Cu
       atom_frac         0.70000000        0.30000000        0.08992096  Cu
       atom_frac         0.80064087        0.39988811        0.10798193  Cu
       atom_frac         0.69800882        0.30076980        0.12553081  Cu
       atom_frac         0.80000000        0.60000000        0.00000000  Cu
       atom_frac         0.70000000        0.50000000        0.01798419  Cu
       atom_frac         0.80000000        0.60000000        0.03596838  Cu
       atom_frac         0.70000000        0.50000000        0.05395258  Cu
       atom_frac         0.80000000        0.60000000        0.07193677  Cu
       atom_frac         0.70000000        0.50000000        0.08992096  Cu
       atom_frac         0.80017442        0.59968301        0.10792139  Cu
       atom_frac         0.69956332        0.50035963        0.12556297  Cu
       atom_frac         0.80000000        0.80000000        0.00000000  Cu
       atom_frac         0.70000000        0.70000000        0.01798419  Cu
       atom_frac         0.80000000        0.80000000        0.03596838  Cu
       atom_frac         0.70000000        0.70000000        0.05395258  Cu
       atom_frac         0.80000000        0.80000000        0.07193677  Cu
       atom_frac         0.70000000        0.70000000        0.08992096  Cu
       atom_frac         0.79979463        0.79954345        0.10785303  Cu
       atom_frac         0.70050339        0.69995969        0.12568575  Cu
       atom_frac         0.29814179        0.21029003        0.14822973  C
       atom_frac         0.24777179        0.30898322        0.14738537  C
       atom_frac         0.25481665        0.10783102        0.14737668  C
       atom_frac         0.13632432        0.33020577        0.14669088  C
       atom_frac         0.14511424        0.07935338        0.14676473  C
       atom_frac         0.09567176        0.43676135        0.14812721  C
       atom_frac         0.11161097       -0.02968441        0.14836448  C
       atom_frac         0.04783797        0.25941165        0.14587571  C
       atom_frac         0.05191471        0.14386724        0.14592770  C
       atom_frac        -0.01402918        0.43222558        0.14856406  C
       atom_frac         0.00224598       -0.03273926        0.14882158  C
       atom_frac        -0.04684345        0.32374460        0.14718960  C
       atom_frac        -0.03806656        0.07337295        0.14732395  C
       atom_frac        -0.15457851        0.29420291        0.14866394  C
       atom_frac        -0.14739923        0.09530996        0.14872029  C
       atom_frac        -0.19808743        0.19325814        0.14988139  C
       atom_frac         0.38201399        0.21309678        0.15049613  H
       atom_frac         0.29555602        0.37668366        0.15025374  H
       atom_frac         0.30692096        0.04416789        0.15052321  H
       atom_frac         0.14412101        0.50353593        0.15103723  H
       atom_frac         0.16495060       -0.09302043        0.15110125  H
       atom_frac        -0.06688212        0.49644922        0.15112515  H
       atom_frac        -0.04617838       -0.10036196        0.15134505  H
       atom_frac        -0.20794636        0.35980106        0.15052337  H
       atom_frac        -0.19612201        0.02634167        0.15063988  H
       atom_frac        -0.28224531        0.19024892        0.15199233  H
------------------------------------------------------------

------------------------------------------------------------------------------
  Final output of selected total energy values:

  The following output summarizes some interesting total energy values
  at the end of a run (AFTER all relaxation, molecular dynamics, etc.).

  | Total energy of the DFT / Hartree-Fock s.c.f. calculation      :       -9066011.611766454 eV
  | Final zero-broadening corrected energy (caution - metals only) :       -9066011.760247247 eV
  | For reference only, the value of 1 Hartree used in FHI-aims is :             27.211384500 eV
  | For reference only, the overall average (free atom contribution
  | + realspace contribution) of the electrostatic potential after
  | s.c.f. convergence is                                          :             -3.520439857 eV

  Before relying on these values, please be sure to understand exactly which
  total energy value is referred to by a given number. Different objects may
  all carry the same name 'total energy'. Definitions:

  Total energy of the DFT / Hartree-Fock s.c.f. calculation:
  | Note that this energy does not include ANY quantities calculated after the
  | s.c.f. cycle, in particular not ANY RPA, MP2, etc. many-body perturbation terms.

  Final zero-broadening corrected energy:
  | For metallic systems only, a broadening of the occupation numbers at the Fermi
  | level can be extrapolated back to zero broadening by an electron-gas inspired
  | formula. For all systems that are not real metals, this value can be
  | meaningless and should be avoided.

------------------------------------------------------------------------------
  Methods described in the following list of references were used in this FHI-aims run.
  If you publish the results, please make sure to cite these reference if they apply.
  FHI-aims is an academic code, and for our developers (often, Ph.D. students
  and postdocs), scientific credit in the community is essential.
  Thank you for helping us!

  For any use of FHI-aims, please cite:

    Volker Blum, Ralf Gehrke, Felix Hanke, Paula Havu, Ville Havu,
    Xinguo Ren, Karsten Reuter, and Matthias Scheffler
    'Ab initio molecular simulations with numeric atom-centered orbitals'
    Computer Physics Communications 180, 2175-2196 (2009)
    http://dx.doi.org/10.1016/j.cpc.2009.06.022


  The provided symmetry information was generated with SPGlib:

    Atsushi Togo, Yusuke Seto, Dimitar Pashov
    SPGlib 1.7.3 obtained from http://spglib.sourceforge.net
    Copyright (C) 2008 Atsushi Togo


  The ELSI infrastructure was used in your run to solve the Kohn-Sham electronic structure.
  Please check out http://elsi-interchange.org to learn more.
  If scalability is important for your project, please acknowledge ELSI by citing:

    V. W-z. Yu, F. Corsetti, A. Garcia, W. P. Huhn, M. Jacquelin, W. Jia,
    B. Lange, L. Lin, J. Lu, W. Mi, A. Seifitokaldani, A. Vazquez-Mayagoitia,
    C. Yang, H. Yang, and V. Blum
    'ELSI: A unified software interface for Kohn-Sham electronic structure solvers'
    Computer Physics Communications 222, 267-285 (2018).
    http://dx.doi.org/10.1016/j.cpc.2017.09.007


  For the real-space grid partitioning and parallelization used in this calculation, please cite:

    Ville Havu, Volker Blum, Paula Havu, and Matthias Scheffler,
    'Efficient O(N) integration for all-electron electronic structure calculation'
    'using numerically tabulated basis functions'
    Journal of Computational Physics 228, 8367-8379 (2009).
    http://dx.doi.org/10.1016/j.jcp.2009.08.008

  Of course, there are many other important community references, e.g., those cited in the
  above references. Our list is limited to references that describe implementations in the
  FHI-aims code. The reason is purely practical (length of this list) - please credit others as well.

   One or more s.c.f. cycles took more than 50 s.c.f. iterations.
   It might be worth adjusting your convergence settings. For example,
   metals need a larger broadening and a smaller "charge_mix_param" value than semiconductors.

 *********************************************************************
   Your are running FHI-aims on many cores. To achieve optimal
   performance for your particular architecture, it might be necessary
   to tune the following compilation and calculation settings:
    * Choosing the right Scalapack and MPI Libraries for your
       architecture is essential. If in doubt, refer to the
       documentation or the sysadmin of your supercomputer.
    * Please review our documentation of Makefile choices, particularly
       for ELPA, in the manual.
    * Some of the following FHI-aims keywords or combination thereof
       may be helpful:
        - FHI-aims setting: collect_eigenvectors .false.
        - FHI-aims setting: use_local_index .true.
        - FHI-aims setting: load_balancing .true.
        - FHI-aims setting: use_alltoall .false.
        - FHI-aims setting: elpa_settings two_step_solver
   Be mindful that the usefulness of these keywords can depend on your
   actual run and on the actual computer you are using. Please check
   their description in the manual and perform specific benchmarks to
   determine what is optimal for your computer. More detailed
   information and examples can be found at:
 http://aimsclub.fhi-berlin.mpg.de/wiki/index.php/Large_scale_settings
 *********************************************************************

------------------------------------------------------------
          Leaving FHI-aims.
          Date     :  20221209, Time     :  004623.568

          Computational steps:
          | Number of self-consistency cycles          :           94
          | Number of SCF (re)initializations          :            2
          | Number of relaxation steps                 :            1

          Detailed time accounting                     :  max(cpu_time)    wall_clock(cpu1)
          | Total time                                 :     3334.236 s        3335.219 s
          | Preparation time                           :        0.709 s           0.760 s
          | Boundary condition initalization           :        4.370 s           4.370 s
          | Grid partitioning                          :        3.394 s           3.389 s
          | Preloading free-atom quantities on grid    :        1.178 s           1.180 s
          | Free-atom superposition energy             :        0.116 s           0.116 s
          | Total time for integrations                :      476.167 s         476.158 s
          | Total time for solution of K.-S. equations :     1727.078 s        1727.262 s
          | Total time for EV reorthonormalization     :        3.765 s           3.762 s
          | Total time for density & force components  :      885.145 s         885.178 s
          | Total time for mixing & preconditioning    :       55.838 s          51.116 s
          | Total time for Hartree multipole update    :        4.466 s           4.467 s
          | Total time for Hartree multipole sum       :      119.336 s         119.342 s
          | Total time for total energy evaluation     :        0.539 s           0.336 s
          | Total time NSC force correction            :        4.704 s           4.714 s
          | Total time for scaled ZORA corrections     :        0.000 s           0.000 s
          | Total time for vdW correction              :       40.481 s          40.414 s

          Partial memory accounting:
          | Residual value for overall tracked memory usage across tasks:     0.000000 MB (should be 0.000000 MB)
          | Peak values for overall tracked memory usage:
          |   Minimum:     1094.822 MB (on task   45 after allocating temp_ham_ovlp)
          |   Maximum:     1096.962 MB (on task    0 after allocating temp_ham_ovlp)
          |   Average:     1095.989 MB
          | Largest tracked array allocation:
          |   Minimum:      311.177 MB (hamiltonian on task    0)
          |   Maximum:      311.177 MB (hamiltonian on task    0)
          |   Average:      311.177 MB
          Note:  These values currently only include a subset of arrays which are explicitly tracked.
          The "true" memory usage will be greater.

          Have a nice day.
------------------------------------------------------------
