------------------------------------------------------------
          Invoking FHI-aims ...

          When using FHI-aims, please cite the following reference:

            Volker Blum, Ralf Gehrke, Felix Hanke, Paula Havu,
            Ville Havu, Xinguo Ren, Karsten Reuter, and Matthias Scheffler,
            'Ab Initio Molecular Simulations with Numeric Atom-Centered Orbitals',
            Computer Physics Communications 180, 2175-2196 (2009)

          In addition, many other developments in FHI-aims are likely important for
          your particular application. A partial list of references is given at the end of
          this file. Thank you for giving credit to the authors of these developments.

          For any questions about FHI-aims, please visit our slack channel at

            https://fhi-aims.slack.com

          and our main development and support site at

            https://aims-git.rz-berlin.mpg.de .

          The latter site, in particular, has a wiki to collect information, as well
          as an issue tracker to log discussions, suggest improvements, and report issues
          or bugs. https://aims-git.rz-berlin.mpg.de is also the main development site
          of the project and all new and updated code versions can be obtained there.
          Please send an email to aims-coordinators@fhi-berlin.mpg.de and we will add
          you to these sites. They are for you and everyone is welcome there.

------------------------------------------------------------



  Date     :  20221210, Time     :  101532.282
  Time zero on CPU 1             :   0.177972100000000E+01  s.
  Internal wall clock time zero  :           439899332.282  s.

  FHI-aims created a unique identifier for this run for later identification
  aims_uuid : EC2CF7D1-F9C5-4938-A221-6AE70D0899A6

  Build configuration of the current instance of FHI-aims
  -------------------------------------------------------
  FHI-aims version      : 210716.3
  Commit number         : GITDIR-NOTFOUND
  CMake host system     : Linux-4.12.14-197.78_9.1.64-cray_shasta_c
  CMake version         : 3.10.2
  Fortran compiler      : /opt/cray/pe/craype/2.7.10/bin/ftn (GNU) version 11.2.0
  Fortran compiler flags: -O2 -fallow-argument-mismatch -ffree-line-length-none
  C compiler            : /opt/cray/pe/craype/2.7.10/bin/cc (GNU) version 11.2.0
  C compiler flags      : -O2
  Using MPI
  Using ScaLAPACK
  Using LibXC
  Using i-PI
  Using RLSY
  Linking against:

  Using      640 parallel tasks.
  Task        0 on host nid005243 reporting.
  Task        1 on host nid005243 reporting.
  Task        2 on host nid005243 reporting.
  Task        3 on host nid005243 reporting.
  Task        4 on host nid005243 reporting.
  Task        5 on host nid005243 reporting.
  Task        6 on host nid005243 reporting.
  Task        7 on host nid005243 reporting.
  Task        8 on host nid005243 reporting.
  Task        9 on host nid005243 reporting.
  Task       10 on host nid005243 reporting.
  Task       11 on host nid005243 reporting.
  Task       12 on host nid005243 reporting.
  Task       13 on host nid005243 reporting.
  Task       14 on host nid005243 reporting.
  Task       15 on host nid005243 reporting.
  Task       16 on host nid005243 reporting.
  Task       17 on host nid005243 reporting.
  Task       18 on host nid005243 reporting.
  Task       19 on host nid005243 reporting.
  Task       20 on host nid005243 reporting.
  Task       21 on host nid005243 reporting.
  Task       22 on host nid005243 reporting.
  Task       23 on host nid005243 reporting.
  Task       24 on host nid005243 reporting.
  Task       25 on host nid005243 reporting.
  Task       26 on host nid005243 reporting.
  Task       27 on host nid005243 reporting.
  Task       28 on host nid005243 reporting.
  Task       29 on host nid005243 reporting.
  Task       30 on host nid005243 reporting.
  Task       31 on host nid005243 reporting.
  Task       32 on host nid005243 reporting.
  Task       33 on host nid005243 reporting.
  Task       34 on host nid005243 reporting.
  Task       35 on host nid005243 reporting.
  Task       36 on host nid005243 reporting.
  Task       37 on host nid005243 reporting.
  Task       38 on host nid005243 reporting.
  Task       39 on host nid005243 reporting.
  Task       40 on host nid005243 reporting.
  Task       41 on host nid005243 reporting.
  Task       42 on host nid005243 reporting.
  Task       43 on host nid005243 reporting.
  Task       44 on host nid005243 reporting.
  Task       45 on host nid005243 reporting.
  Task       46 on host nid005243 reporting.
  Task       47 on host nid005243 reporting.
  Task       48 on host nid005243 reporting.
  Task       49 on host nid005243 reporting.
  Task       50 on host nid005243 reporting.
  Task       51 on host nid005243 reporting.
  Task       52 on host nid005243 reporting.
  Task       53 on host nid005243 reporting.
  Task       54 on host nid005243 reporting.
  Task       55 on host nid005243 reporting.
  Task       56 on host nid005243 reporting.
  Task       57 on host nid005243 reporting.
  Task       58 on host nid005243 reporting.
  Task       59 on host nid005243 reporting.
  Task       60 on host nid005243 reporting.
  Task       61 on host nid005243 reporting.
  Task       62 on host nid005243 reporting.
  Task       63 on host nid005243 reporting.
  Task       64 on host nid005243 reporting.
  Task       65 on host nid005243 reporting.
  Task       66 on host nid005243 reporting.
  Task       67 on host nid005243 reporting.
  Task       68 on host nid005243 reporting.
  Task       69 on host nid005243 reporting.
  Task       70 on host nid005243 reporting.
  Task       71 on host nid005243 reporting.
  Task       72 on host nid005243 reporting.
  Task       73 on host nid005243 reporting.
  Task       74 on host nid005243 reporting.
  Task       75 on host nid005243 reporting.
  Task       76 on host nid005243 reporting.
  Task       77 on host nid005243 reporting.
  Task       78 on host nid005243 reporting.
  Task       79 on host nid005243 reporting.
  Task       80 on host nid005243 reporting.
  Task       81 on host nid005243 reporting.
  Task       82 on host nid005243 reporting.
  Task       83 on host nid005243 reporting.
  Task       84 on host nid005243 reporting.
  Task       85 on host nid005243 reporting.
  Task       86 on host nid005243 reporting.
  Task       87 on host nid005243 reporting.
  Task       88 on host nid005243 reporting.
  Task       89 on host nid005243 reporting.
  Task       90 on host nid005243 reporting.
  Task       91 on host nid005243 reporting.
  Task       92 on host nid005243 reporting.
  Task       93 on host nid005243 reporting.
  Task       94 on host nid005243 reporting.
  Task       95 on host nid005243 reporting.
  Task       96 on host nid005243 reporting.
  Task       97 on host nid005243 reporting.
  Task       98 on host nid005243 reporting.
  Task       99 on host nid005243 reporting.
  Task      100 on host nid005243 reporting.
  Task      101 on host nid005243 reporting.
  Task      102 on host nid005243 reporting.
  Task      103 on host nid005243 reporting.
  Task      104 on host nid005243 reporting.
  Task      105 on host nid005243 reporting.
  Task      106 on host nid005243 reporting.
  Task      107 on host nid005243 reporting.
  Task      108 on host nid005243 reporting.
  Task      109 on host nid005243 reporting.
  Task      110 on host nid005243 reporting.
  Task      111 on host nid005243 reporting.
  Task      112 on host nid005243 reporting.
  Task      113 on host nid005243 reporting.
  Task      114 on host nid005243 reporting.
  Task      115 on host nid005243 reporting.
  Task      116 on host nid005243 reporting.
  Task      117 on host nid005243 reporting.
  Task      118 on host nid005243 reporting.
  Task      119 on host nid005243 reporting.
  Task      120 on host nid005243 reporting.
  Task      121 on host nid005243 reporting.
  Task      122 on host nid005243 reporting.
  Task      123 on host nid005243 reporting.
  Task      124 on host nid005243 reporting.
  Task      125 on host nid005243 reporting.
  Task      126 on host nid005243 reporting.
  Task      127 on host nid005243 reporting.
  Task      128 on host nid005247 reporting.
  Task      129 on host nid005247 reporting.
  Task      130 on host nid005247 reporting.
  Task      131 on host nid005247 reporting.
  Task      132 on host nid005247 reporting.
  Task      133 on host nid005247 reporting.
  Task      134 on host nid005247 reporting.
  Task      135 on host nid005247 reporting.
  Task      136 on host nid005247 reporting.
  Task      137 on host nid005247 reporting.
  Task      138 on host nid005247 reporting.
  Task      139 on host nid005247 reporting.
  Task      140 on host nid005247 reporting.
  Task      141 on host nid005247 reporting.
  Task      142 on host nid005247 reporting.
  Task      143 on host nid005247 reporting.
  Task      144 on host nid005247 reporting.
  Task      145 on host nid005247 reporting.
  Task      146 on host nid005247 reporting.
  Task      147 on host nid005247 reporting.
  Task      148 on host nid005247 reporting.
  Task      149 on host nid005247 reporting.
  Task      150 on host nid005247 reporting.
  Task      151 on host nid005247 reporting.
  Task      152 on host nid005247 reporting.
  Task      153 on host nid005247 reporting.
  Task      154 on host nid005247 reporting.
  Task      155 on host nid005247 reporting.
  Task      156 on host nid005247 reporting.
  Task      157 on host nid005247 reporting.
  Task      158 on host nid005247 reporting.
  Task      159 on host nid005247 reporting.
  Task      160 on host nid005247 reporting.
  Task      161 on host nid005247 reporting.
  Task      162 on host nid005247 reporting.
  Task      163 on host nid005247 reporting.
  Task      164 on host nid005247 reporting.
  Task      165 on host nid005247 reporting.
  Task      166 on host nid005247 reporting.
  Task      167 on host nid005247 reporting.
  Task      168 on host nid005247 reporting.
  Task      169 on host nid005247 reporting.
  Task      170 on host nid005247 reporting.
  Task      171 on host nid005247 reporting.
  Task      172 on host nid005247 reporting.
  Task      173 on host nid005247 reporting.
  Task      174 on host nid005247 reporting.
  Task      175 on host nid005247 reporting.
  Task      176 on host nid005247 reporting.
  Task      177 on host nid005247 reporting.
  Task      178 on host nid005247 reporting.
  Task      179 on host nid005247 reporting.
  Task      180 on host nid005247 reporting.
  Task      181 on host nid005247 reporting.
  Task      182 on host nid005247 reporting.
  Task      183 on host nid005247 reporting.
  Task      184 on host nid005247 reporting.
  Task      185 on host nid005247 reporting.
  Task      186 on host nid005247 reporting.
  Task      187 on host nid005247 reporting.
  Task      188 on host nid005247 reporting.
  Task      189 on host nid005247 reporting.
  Task      190 on host nid005247 reporting.
  Task      191 on host nid005247 reporting.
  Task      192 on host nid005247 reporting.
  Task      193 on host nid005247 reporting.
  Task      194 on host nid005247 reporting.
  Task      195 on host nid005247 reporting.
  Task      196 on host nid005247 reporting.
  Task      197 on host nid005247 reporting.
  Task      198 on host nid005247 reporting.
  Task      199 on host nid005247 reporting.
  Task      200 on host nid005247 reporting.
  Task      201 on host nid005247 reporting.
  Task      202 on host nid005247 reporting.
  Task      203 on host nid005247 reporting.
  Task      204 on host nid005247 reporting.
  Task      205 on host nid005247 reporting.
  Task      206 on host nid005247 reporting.
  Task      207 on host nid005247 reporting.
  Task      208 on host nid005247 reporting.
  Task      209 on host nid005247 reporting.
  Task      210 on host nid005247 reporting.
  Task      211 on host nid005247 reporting.
  Task      212 on host nid005247 reporting.
  Task      213 on host nid005247 reporting.
  Task      214 on host nid005247 reporting.
  Task      215 on host nid005247 reporting.
  Task      216 on host nid005247 reporting.
  Task      217 on host nid005247 reporting.
  Task      218 on host nid005247 reporting.
  Task      219 on host nid005247 reporting.
  Task      220 on host nid005247 reporting.
  Task      221 on host nid005247 reporting.
  Task      222 on host nid005247 reporting.
  Task      223 on host nid005247 reporting.
  Task      224 on host nid005247 reporting.
  Task      225 on host nid005247 reporting.
  Task      226 on host nid005247 reporting.
  Task      227 on host nid005247 reporting.
  Task      228 on host nid005247 reporting.
  Task      229 on host nid005247 reporting.
  Task      230 on host nid005247 reporting.
  Task      231 on host nid005247 reporting.
  Task      232 on host nid005247 reporting.
  Task      233 on host nid005247 reporting.
  Task      234 on host nid005247 reporting.
  Task      235 on host nid005247 reporting.
  Task      236 on host nid005247 reporting.
  Task      237 on host nid005247 reporting.
  Task      238 on host nid005247 reporting.
  Task      239 on host nid005247 reporting.
  Task      240 on host nid005247 reporting.
  Task      241 on host nid005247 reporting.
  Task      242 on host nid005247 reporting.
  Task      243 on host nid005247 reporting.
  Task      244 on host nid005247 reporting.
  Task      245 on host nid005247 reporting.
  Task      246 on host nid005247 reporting.
  Task      247 on host nid005247 reporting.
  Task      248 on host nid005247 reporting.
  Task      249 on host nid005247 reporting.
  Task      250 on host nid005247 reporting.
  Task      251 on host nid005247 reporting.
  Task      252 on host nid005247 reporting.
  Task      253 on host nid005247 reporting.
  Task      254 on host nid005247 reporting.
  Task      255 on host nid005247 reporting.
  Task      256 on host nid005248 reporting.
  Task      257 on host nid005248 reporting.
  Task      258 on host nid005248 reporting.
  Task      259 on host nid005248 reporting.
  Task      260 on host nid005248 reporting.
  Task      261 on host nid005248 reporting.
  Task      262 on host nid005248 reporting.
  Task      263 on host nid005248 reporting.
  Task      264 on host nid005248 reporting.
  Task      265 on host nid005248 reporting.
  Task      266 on host nid005248 reporting.
  Task      267 on host nid005248 reporting.
  Task      268 on host nid005248 reporting.
  Task      269 on host nid005248 reporting.
  Task      270 on host nid005248 reporting.
  Task      271 on host nid005248 reporting.
  Task      272 on host nid005248 reporting.
  Task      273 on host nid005248 reporting.
  Task      274 on host nid005248 reporting.
  Task      275 on host nid005248 reporting.
  Task      276 on host nid005248 reporting.
  Task      277 on host nid005248 reporting.
  Task      278 on host nid005248 reporting.
  Task      279 on host nid005248 reporting.
  Task      280 on host nid005248 reporting.
  Task      281 on host nid005248 reporting.
  Task      282 on host nid005248 reporting.
  Task      283 on host nid005248 reporting.
  Task      284 on host nid005248 reporting.
  Task      285 on host nid005248 reporting.
  Task      286 on host nid005248 reporting.
  Task      287 on host nid005248 reporting.
  Task      288 on host nid005248 reporting.
  Task      289 on host nid005248 reporting.
  Task      290 on host nid005248 reporting.
  Task      291 on host nid005248 reporting.
  Task      292 on host nid005248 reporting.
  Task      293 on host nid005248 reporting.
  Task      294 on host nid005248 reporting.
  Task      295 on host nid005248 reporting.
  Task      296 on host nid005248 reporting.
  Task      297 on host nid005248 reporting.
  Task      298 on host nid005248 reporting.
  Task      299 on host nid005248 reporting.
  Task      300 on host nid005248 reporting.
  Task      301 on host nid005248 reporting.
  Task      302 on host nid005248 reporting.
  Task      303 on host nid005248 reporting.
  Task      304 on host nid005248 reporting.
  Task      305 on host nid005248 reporting.
  Task      306 on host nid005248 reporting.
  Task      307 on host nid005248 reporting.
  Task      308 on host nid005248 reporting.
  Task      309 on host nid005248 reporting.
  Task      310 on host nid005248 reporting.
  Task      311 on host nid005248 reporting.
  Task      312 on host nid005248 reporting.
  Task      313 on host nid005248 reporting.
  Task      314 on host nid005248 reporting.
  Task      315 on host nid005248 reporting.
  Task      316 on host nid005248 reporting.
  Task      317 on host nid005248 reporting.
  Task      318 on host nid005248 reporting.
  Task      319 on host nid005248 reporting.
  Task      320 on host nid005248 reporting.
  Task      321 on host nid005248 reporting.
  Task      322 on host nid005248 reporting.
  Task      323 on host nid005248 reporting.
  Task      324 on host nid005248 reporting.
  Task      325 on host nid005248 reporting.
  Task      326 on host nid005248 reporting.
  Task      327 on host nid005248 reporting.
  Task      328 on host nid005248 reporting.
  Task      329 on host nid005248 reporting.
  Task      330 on host nid005248 reporting.
  Task      331 on host nid005248 reporting.
  Task      332 on host nid005248 reporting.
  Task      333 on host nid005248 reporting.
  Task      334 on host nid005248 reporting.
  Task      335 on host nid005248 reporting.
  Task      336 on host nid005248 reporting.
  Task      337 on host nid005248 reporting.
  Task      338 on host nid005248 reporting.
  Task      339 on host nid005248 reporting.
  Task      340 on host nid005248 reporting.
  Task      341 on host nid005248 reporting.
  Task      342 on host nid005248 reporting.
  Task      343 on host nid005248 reporting.
  Task      344 on host nid005248 reporting.
  Task      345 on host nid005248 reporting.
  Task      346 on host nid005248 reporting.
  Task      347 on host nid005248 reporting.
  Task      348 on host nid005248 reporting.
  Task      349 on host nid005248 reporting.
  Task      350 on host nid005248 reporting.
  Task      351 on host nid005248 reporting.
  Task      352 on host nid005248 reporting.
  Task      353 on host nid005248 reporting.
  Task      354 on host nid005248 reporting.
  Task      355 on host nid005248 reporting.
  Task      356 on host nid005248 reporting.
  Task      357 on host nid005248 reporting.
  Task      358 on host nid005248 reporting.
  Task      359 on host nid005248 reporting.
  Task      360 on host nid005248 reporting.
  Task      361 on host nid005248 reporting.
  Task      362 on host nid005248 reporting.
  Task      363 on host nid005248 reporting.
  Task      364 on host nid005248 reporting.
  Task      365 on host nid005248 reporting.
  Task      366 on host nid005248 reporting.
  Task      367 on host nid005248 reporting.
  Task      368 on host nid005248 reporting.
  Task      369 on host nid005248 reporting.
  Task      370 on host nid005248 reporting.
  Task      371 on host nid005248 reporting.
  Task      372 on host nid005248 reporting.
  Task      373 on host nid005248 reporting.
  Task      374 on host nid005248 reporting.
  Task      375 on host nid005248 reporting.
  Task      376 on host nid005248 reporting.
  Task      377 on host nid005248 reporting.
  Task      378 on host nid005248 reporting.
  Task      379 on host nid005248 reporting.
  Task      380 on host nid005248 reporting.
  Task      381 on host nid005248 reporting.
  Task      382 on host nid005248 reporting.
  Task      383 on host nid005248 reporting.
  Task      384 on host nid005249 reporting.
  Task      385 on host nid005249 reporting.
  Task      386 on host nid005249 reporting.
  Task      387 on host nid005249 reporting.
  Task      388 on host nid005249 reporting.
  Task      389 on host nid005249 reporting.
  Task      390 on host nid005249 reporting.
  Task      391 on host nid005249 reporting.
  Task      392 on host nid005249 reporting.
  Task      393 on host nid005249 reporting.
  Task      394 on host nid005249 reporting.
  Task      395 on host nid005249 reporting.
  Task      396 on host nid005249 reporting.
  Task      397 on host nid005249 reporting.
  Task      398 on host nid005249 reporting.
  Task      399 on host nid005249 reporting.
  Task      400 on host nid005249 reporting.
  Task      401 on host nid005249 reporting.
  Task      402 on host nid005249 reporting.
  Task      403 on host nid005249 reporting.
  Task      404 on host nid005249 reporting.
  Task      405 on host nid005249 reporting.
  Task      406 on host nid005249 reporting.
  Task      407 on host nid005249 reporting.
  Task      408 on host nid005249 reporting.
  Task      409 on host nid005249 reporting.
  Task      410 on host nid005249 reporting.
  Task      411 on host nid005249 reporting.
  Task      412 on host nid005249 reporting.
  Task      413 on host nid005249 reporting.
  Task      414 on host nid005249 reporting.
  Task      415 on host nid005249 reporting.
  Task      416 on host nid005249 reporting.
  Task      417 on host nid005249 reporting.
  Task      418 on host nid005249 reporting.
  Task      419 on host nid005249 reporting.
  Task      420 on host nid005249 reporting.
  Task      421 on host nid005249 reporting.
  Task      422 on host nid005249 reporting.
  Task      423 on host nid005249 reporting.
  Task      424 on host nid005249 reporting.
  Task      425 on host nid005249 reporting.
  Task      426 on host nid005249 reporting.
  Task      427 on host nid005249 reporting.
  Task      428 on host nid005249 reporting.
  Task      429 on host nid005249 reporting.
  Task      430 on host nid005249 reporting.
  Task      431 on host nid005249 reporting.
  Task      432 on host nid005249 reporting.
  Task      433 on host nid005249 reporting.
  Task      434 on host nid005249 reporting.
  Task      435 on host nid005249 reporting.
  Task      436 on host nid005249 reporting.
  Task      437 on host nid005249 reporting.
  Task      438 on host nid005249 reporting.
  Task      439 on host nid005249 reporting.
  Task      440 on host nid005249 reporting.
  Task      441 on host nid005249 reporting.
  Task      442 on host nid005249 reporting.
  Task      443 on host nid005249 reporting.
  Task      444 on host nid005249 reporting.
  Task      445 on host nid005249 reporting.
  Task      446 on host nid005249 reporting.
  Task      447 on host nid005249 reporting.
  Task      448 on host nid005249 reporting.
  Task      449 on host nid005249 reporting.
  Task      450 on host nid005249 reporting.
  Task      451 on host nid005249 reporting.
  Task      452 on host nid005249 reporting.
  Task      453 on host nid005249 reporting.
  Task      454 on host nid005249 reporting.
  Task      455 on host nid005249 reporting.
  Task      456 on host nid005249 reporting.
  Task      457 on host nid005249 reporting.
  Task      458 on host nid005249 reporting.
  Task      459 on host nid005249 reporting.
  Task      460 on host nid005249 reporting.
  Task      461 on host nid005249 reporting.
  Task      462 on host nid005249 reporting.
  Task      463 on host nid005249 reporting.
  Task      464 on host nid005249 reporting.
  Task      465 on host nid005249 reporting.
  Task      466 on host nid005249 reporting.
  Task      467 on host nid005249 reporting.
  Task      468 on host nid005249 reporting.
  Task      469 on host nid005249 reporting.
  Task      470 on host nid005249 reporting.
  Task      471 on host nid005249 reporting.
  Task      472 on host nid005249 reporting.
  Task      473 on host nid005249 reporting.
  Task      474 on host nid005249 reporting.
  Task      475 on host nid005249 reporting.
  Task      476 on host nid005249 reporting.
  Task      477 on host nid005249 reporting.
  Task      478 on host nid005249 reporting.
  Task      479 on host nid005249 reporting.
  Task      480 on host nid005249 reporting.
  Task      481 on host nid005249 reporting.
  Task      482 on host nid005249 reporting.
  Task      483 on host nid005249 reporting.
  Task      484 on host nid005249 reporting.
  Task      485 on host nid005249 reporting.
  Task      486 on host nid005249 reporting.
  Task      487 on host nid005249 reporting.
  Task      488 on host nid005249 reporting.
  Task      489 on host nid005249 reporting.
  Task      490 on host nid005249 reporting.
  Task      491 on host nid005249 reporting.
  Task      492 on host nid005249 reporting.
  Task      493 on host nid005249 reporting.
  Task      494 on host nid005249 reporting.
  Task      495 on host nid005249 reporting.
  Task      496 on host nid005249 reporting.
  Task      497 on host nid005249 reporting.
  Task      498 on host nid005249 reporting.
  Task      499 on host nid005249 reporting.
  Task      500 on host nid005249 reporting.
  Task      501 on host nid005249 reporting.
  Task      502 on host nid005249 reporting.
  Task      503 on host nid005249 reporting.
  Task      504 on host nid005249 reporting.
  Task      505 on host nid005249 reporting.
  Task      506 on host nid005249 reporting.
  Task      507 on host nid005249 reporting.
  Task      508 on host nid005249 reporting.
  Task      509 on host nid005249 reporting.
  Task      510 on host nid005249 reporting.
  Task      511 on host nid005249 reporting.
  Task      512 on host nid005252 reporting.
  Task      513 on host nid005252 reporting.
  Task      514 on host nid005252 reporting.
  Task      515 on host nid005252 reporting.
  Task      516 on host nid005252 reporting.
  Task      517 on host nid005252 reporting.
  Task      518 on host nid005252 reporting.
  Task      519 on host nid005252 reporting.
  Task      520 on host nid005252 reporting.
  Task      521 on host nid005252 reporting.
  Task      522 on host nid005252 reporting.
  Task      523 on host nid005252 reporting.
  Task      524 on host nid005252 reporting.
  Task      525 on host nid005252 reporting.
  Task      526 on host nid005252 reporting.
  Task      527 on host nid005252 reporting.
  Task      528 on host nid005252 reporting.
  Task      529 on host nid005252 reporting.
  Task      530 on host nid005252 reporting.
  Task      531 on host nid005252 reporting.
  Task      532 on host nid005252 reporting.
  Task      533 on host nid005252 reporting.
  Task      534 on host nid005252 reporting.
  Task      535 on host nid005252 reporting.
  Task      536 on host nid005252 reporting.
  Task      537 on host nid005252 reporting.
  Task      538 on host nid005252 reporting.
  Task      539 on host nid005252 reporting.
  Task      540 on host nid005252 reporting.
  Task      541 on host nid005252 reporting.
  Task      542 on host nid005252 reporting.
  Task      543 on host nid005252 reporting.
  Task      544 on host nid005252 reporting.
  Task      545 on host nid005252 reporting.
  Task      546 on host nid005252 reporting.
  Task      547 on host nid005252 reporting.
  Task      548 on host nid005252 reporting.
  Task      549 on host nid005252 reporting.
  Task      550 on host nid005252 reporting.
  Task      551 on host nid005252 reporting.
  Task      552 on host nid005252 reporting.
  Task      553 on host nid005252 reporting.
  Task      554 on host nid005252 reporting.
  Task      555 on host nid005252 reporting.
  Task      556 on host nid005252 reporting.
  Task      557 on host nid005252 reporting.
  Task      558 on host nid005252 reporting.
  Task      559 on host nid005252 reporting.
  Task      560 on host nid005252 reporting.
  Task      561 on host nid005252 reporting.
  Task      562 on host nid005252 reporting.
  Task      563 on host nid005252 reporting.
  Task      564 on host nid005252 reporting.
  Task      565 on host nid005252 reporting.
  Task      566 on host nid005252 reporting.
  Task      567 on host nid005252 reporting.
  Task      568 on host nid005252 reporting.
  Task      569 on host nid005252 reporting.
  Task      570 on host nid005252 reporting.
  Task      571 on host nid005252 reporting.
  Task      572 on host nid005252 reporting.
  Task      573 on host nid005252 reporting.
  Task      574 on host nid005252 reporting.
  Task      575 on host nid005252 reporting.
  Task      576 on host nid005252 reporting.
  Task      577 on host nid005252 reporting.
  Task      578 on host nid005252 reporting.
  Task      579 on host nid005252 reporting.
  Task      580 on host nid005252 reporting.
  Task      581 on host nid005252 reporting.
  Task      582 on host nid005252 reporting.
  Task      583 on host nid005252 reporting.
  Task      584 on host nid005252 reporting.
  Task      585 on host nid005252 reporting.
  Task      586 on host nid005252 reporting.
  Task      587 on host nid005252 reporting.
  Task      588 on host nid005252 reporting.
  Task      589 on host nid005252 reporting.
  Task      590 on host nid005252 reporting.
  Task      591 on host nid005252 reporting.
  Task      592 on host nid005252 reporting.
  Task      593 on host nid005252 reporting.
  Task      594 on host nid005252 reporting.
  Task      595 on host nid005252 reporting.
  Task      596 on host nid005252 reporting.
  Task      597 on host nid005252 reporting.
  Task      598 on host nid005252 reporting.
  Task      599 on host nid005252 reporting.
  Task      600 on host nid005252 reporting.
  Task      601 on host nid005252 reporting.
  Task      602 on host nid005252 reporting.
  Task      603 on host nid005252 reporting.
  Task      604 on host nid005252 reporting.
  Task      605 on host nid005252 reporting.
  Task      606 on host nid005252 reporting.
  Task      607 on host nid005252 reporting.
  Task      608 on host nid005252 reporting.
  Task      609 on host nid005252 reporting.
  Task      610 on host nid005252 reporting.
  Task      611 on host nid005252 reporting.
  Task      612 on host nid005252 reporting.
  Task      613 on host nid005252 reporting.
  Task      614 on host nid005252 reporting.
  Task      615 on host nid005252 reporting.
  Task      616 on host nid005252 reporting.
  Task      617 on host nid005252 reporting.
  Task      618 on host nid005252 reporting.
  Task      619 on host nid005252 reporting.
  Task      620 on host nid005252 reporting.
  Task      621 on host nid005252 reporting.
  Task      622 on host nid005252 reporting.
  Task      623 on host nid005252 reporting.
  Task      624 on host nid005252 reporting.
  Task      625 on host nid005252 reporting.
  Task      626 on host nid005252 reporting.
  Task      627 on host nid005252 reporting.
  Task      628 on host nid005252 reporting.
  Task      629 on host nid005252 reporting.
  Task      630 on host nid005252 reporting.
  Task      631 on host nid005252 reporting.
  Task      632 on host nid005252 reporting.
  Task      633 on host nid005252 reporting.
  Task      634 on host nid005252 reporting.
  Task      635 on host nid005252 reporting.
  Task      636 on host nid005252 reporting.
  Task      637 on host nid005252 reporting.
  Task      638 on host nid005252 reporting.
  Task      639 on host nid005252 reporting.

  Performing system and environment tests:
  | Environment variable OMP_NUM_THREADS correctly set to 1.
  | Checking for ScaLAPACK...
  | Testing pdtran()...
  | All pdtran() tests passed.

  Obtaining array dimensions for all initial allocations:
  
  -----------------------------------------------------------------------
  Parsing control.in (first pass over file, find array dimensions only).
  The contents of control.in will be repeated verbatim below
  unless switched off by setting 'verbatim_writeout .false.' .
  in the first line of control.in .
  -----------------------------------------------------------------------
  
  #===============================================================================
  # FHI-aims file: ./graph_ads/Cu_100/3A_full_go/control.in
  # Created using the Atomic Simulation Environment (ASE)
  # Thu Nov 24 11:24:23 2022
  #===============================================================================
  xc                                 pbe
  k_grid                             6 6 1
  spin                               none
  relativistic                       atomic_zora scalar
  
  occupation_type                    gaussian 0.1
  sc_accuracy_rho                    1e-05
  sc_accuracy_eev                    0.001
  sc_accuracy_etot                   1e-06
  sc_iter_limit                      500
  
  many_body_dispersion_nl            beta=0.81
  
  # relax_geometry                     bfgs 0.01
  # stress_for_relaxation              analytical
  #===============================================================================
  
  ################################################################################
  #
  #  FHI-aims code project
  #  VB, Fritz-Haber Institut, 2010
  #
  #  Suggested "light" defaults for Cu atom (to be pasted into control.in file)
  #  Be sure to double-check any results obtained with these settings for post-processing,
  #  e.g., with the "tight" defaults and larger basis sets.
  #
  ################################################################################
    species        Cu1
  #
      nucleus      29
      mass         63.546
  #
      l_hartree    4
  #
      cut_pot      3.5  1.5  1.0
      basis_dep_cutoff    1e-4
  #
      radial_base        53 5.0
      radial_multiplier  1
      angular_grids       specified
        division   0.5231   50
        division   0.8642  110
        division   1.1767  194
        division   1.5041  302
  #      division   1.9293  434
  #      division   2.0065  590
  #      division   2.0466  770
  #      division   2.0877  974
  #      division   2.4589 1202
        outer_grid   302
  ################################################################################
  #
  #  Definition of "minimal" basis
  #
  ################################################################################
  #     valence basis states
      valence      4  s   1.
      valence      3  p   6.
      valence      3  d  10.
  #     ion occupancy
      ion_occ      4  s   0.
      ion_occ      3  p   6.
      ion_occ      3  d   9.
  ################################################################################
  #
  #  Suggested additional basis functions. For production calculations,
  #  uncomment them one after another (the most important basis functions are
  #  listed first).
  #
  #  Constructed for dimers: 1.8, 2.2, 3.0, 4.0 Ang
  #
  ################################################################################
  #  "First tier" - improvements: -211.42 meV to -9.17 meV
       ionic 4 p auto
       hydro 4 f 7.4
       hydro 3 s 2.6
       hydro 3 d 5
  #     hydro 5 g 10.4
  #  "Second tier" - improvements: -2.49 meV to -1.08 meV
  #     hydro 4 p 5.8
  #     hydro 3 d 2.7
  #     hydro 6 h 15.2
  #     hydro 5 s 10.8
  #     hydro 4 f 16
  #  "Third tier" - improvements: -0.50 meV to -0.21 meV
  #     hydro 4 d 6
  #     hydro 3 p 2.4
  #     hydro 4 f 6.4
  #     hydro 3 s 6.8
  #     hydro 5 g 11.2
  #  "Fourth tier" - improvements: -0.13 meV to -0.05 meV
  #     hydro 4 p 7
  #     hydro 4 s 4
  #     hydro 6 h 14
  #     hydro 4 d 8.6
  #     hydro 5 f 15.2
  
  hirshfeld_param 59.000 10.900 2.4000
  ################################################################################
  #
  #  FHI-aims code project
  #  Volker Blum, Fritz Haber Institute Berlin, 2010
  #
  #  Suggested "tight" defaults for Cu atom (to be pasted into control.in file)
  #
  ################################################################################
    species        Cu
  #
      nucleus      29
      mass         63.546
  #
      l_hartree    6
  #
      cut_pot      4.0  2.0  1.0
      basis_dep_cutoff    1e-4
  #
      radial_base        53 7.0
      radial_multiplier  2
      angular_grids       specified
        division   0.3478   50
        division   0.6638  110
        division   0.9718  194
        division   1.1992  302
        division   1.5920  434
  #      division   1.8557  590
  #      division   2.0466  770
  #      division   2.0877  974
  #      division   2.4589 1202
        outer_grid   434
  ################################################################################
  #
  #  Definition of "minimal" basis
  #
  ################################################################################
  #     valence basis states
      valence      4  s   1.
      valence      3  p   6.
      valence      3  d  10.
  #     ion occupancy
      ion_occ      4  s   0.
      ion_occ      3  p   6.
      ion_occ      3  d   9.
  ################################################################################
  #
  #  Suggested additional basis functions. For production calculations,
  #  uncomment them one after another (the most important basis functions are
  #  listed first).
  #
  #  Constructed for dimers: 1.8, 2.2, 3.0, 4.0 Ang
  #
  ################################################################################
  #  "First tier" - improvements: -211.42 meV to -9.17 meV
       ionic 4 p auto
       hydro 4 f 7.4
       hydro 3 s 2.6
       hydro 3 d 5
       hydro 5 g 10.4
  #  "Second tier" - improvements: -2.49 meV to -1.08 meV
  #     hydro 4 p 5.8
  #     hydro 3 d 2.7
  #     hydro 6 h 15.2
  #     hydro 5 s 10.8
  #     hydro 4 f 16
  #  "Third tier" - improvements: -0.50 meV to -0.21 meV
  #     hydro 4 d 6
  #     hydro 3 p 2.4
  #     hydro 4 f 6.4
  #     hydro 3 s 6.8
  #     hydro 5 g 11.2
  #  "Fourth tier" - improvements: -0.13 meV to -0.05 meV
  #     hydro 4 p 7
  #     hydro 4 s 4
  #     hydro 6 h 14
  #     hydro 4 d 8.6
  #     hydro 5 f 15.2
  
  hirshfeld_param 59.000 10.900 2.4000
  ################################################################################
  #
  #  FHI-aims code project
  #  Volker Blum, Fritz Haber Institute Berlin, 2009
  #
  #  Suggested "tight" defaults for C atom (to be pasted into control.in file)
  #
  ################################################################################
    species        C
  #     global species definitions
      nucleus             6
      mass                12.0107
  #
      l_hartree           6
  #
      cut_pot             4.0  2.0  1.0
      basis_dep_cutoff    1e-4
  #
      radial_base         34 7.0
      radial_multiplier   2
      angular_grids specified
        division   0.2187   50
        division   0.4416  110
        division   0.6335  194
        division   0.7727  302
        division   0.8772  434
  #      division   0.9334  590
  #      division   0.9924  770
  #      division   1.0230  974
  #      division   1.5020 1202
  #     outer_grid  974
        outer_grid  434
  ################################################################################
  #
  #  Definition of "minimal" basis
  #
  ################################################################################
  #     valence basis states
      valence      2  s   2.
      valence      2  p   2.
  #     ion occupancy
      ion_occ      2  s   1.
      ion_occ      2  p   1.
  ################################################################################
  #
  #  Suggested additional basis functions. For production calculations,
  #  uncomment them one after another (the most important basis functions are
  #  listed first).
  #
  #  Constructed for dimers: 1.0 A, 1.25 A, 1.5 A, 2.0 A, 3.0 A
  #
  ################################################################################
  #  "First tier" - improvements: -1214.57 meV to -155.61 meV
       hydro 2 p 1.7
       hydro 3 d 6
       hydro 2 s 4.9
  #  "Second tier" - improvements: -67.75 meV to -5.23 meV
       hydro 4 f 9.8
       hydro 3 p 5.2
       hydro 3 s 4.3
       hydro 5 g 14.4
       hydro 3 d 6.2
  #  "Third tier" - improvements: -2.43 meV to -0.60 meV
  #     hydro 2 p 5.6
  #     hydro 2 s 1.4
  #     hydro 3 d 4.9
  #     hydro 4 f 11.2
  #  "Fourth tier" - improvements: -0.39 meV to -0.18 meV
  #     hydro 2 p 2.1
  #     hydro 5 g 16.4
  #     hydro 4 d 13.2
  #     hydro 3 s 13.6
  #     hydro 4 f 17.6
  #  Further basis functions - improvements: -0.08 meV and below
  #     hydro 3 s 2
  #     hydro 3 p 6
  #     hydro 4 d 20
  ################################################################################
  #
  # For methods that use the localized form of the "resolution of identity" for
  # the two-electron Coulomb operator (RI_method LVL), particularly Hartree-Fock and
  # hybrid density functional calculations, the highest accuracy can be obtained by
  # uncommenting the line beginning with "for_aux"  below, thus adding an extra g radial
  # function to the construction of the product basis set for the expansion.
  # See Ref. New J. Phys. 17, 093020 (2015) for more information, particularly Figs. 1 and 6.
  #
  ################################################################################
  #
  # for_aux hydro 5 g 6.0
  ################################################################################
  #
  #  FHI-aims code project
  #  Volker Blum, Fritz Haber Institute Berlin, 2009
  #
  #  Suggested "tight" defaults for H atom (to be pasted into control.in file)
  #
  ################################################################################
    species        H
  #     global species definitions
      nucleus             1
      mass                1.00794
  #
      l_hartree           6
  #
      cut_pot             4.0  2.0  1.0
      basis_dep_cutoff    1e-4
  #
      radial_base         24 7.0
      radial_multiplier   2
      angular_grids       specified
        division   0.1930   50
        division   0.3175  110
        division   0.4293  194
        division   0.5066  302
        division   0.5626  434
  #      division   0.5922  590
  #      division   0.6227  974
  #      division   0.6868 1202
  #      outer_grid  770
        outer_grid  434
  ################################################################################
  #
  #  Definition of "minimal" basis
  #
  ################################################################################
  #     valence basis states
      valence      1  s   1.
  #     ion occupancy
      ion_occ      1  s   0.5
  ################################################################################
  #
  #  Suggested additional basis functions. For production calculations,
  #  uncomment them one after another (the most important basis functions are
  #  listed first).
  #
  #  Basis constructed for dimers: 0.5 A, 0.7 A, 1.0 A, 1.5 A, 2.5 A
  #
  ################################################################################
  #  "First tier" - improvements: -1014.90 meV to -62.69 meV
       hydro 2 s 2.1
       hydro 2 p 3.5
  #  "Second tier" - improvements: -12.89 meV to -1.83 meV
       hydro 1 s 0.85
       hydro 2 p 3.7
       hydro 2 s 1.2
       hydro 3 d 7
  #  "Third tier" - improvements: -0.25 meV to -0.12 meV
  #     hydro 4 f 11.2
  #     hydro 3 p 4.8
  #     hydro 4 d 9
  #     hydro 3 s 3.2
  ################################################################################
  #
  # For methods that use the localized form of the "resolution of identity" for
  # the two-electron Coulomb operator (RI_method LVL), particularly Hartree-Fock and
  # hybrid density functional calculations, the highest accuracy can be obtained by
  # uncommenting the line beginning with "for_aux"  below, thus adding an extra g radial
  # function to the construction of the product basis set for the expansion.
  # See Ref. New J. Phys. 17, 093020 (2015) for more information, particularly Figs. 1 and 6.
  #
  ################################################################################
  #
  # for_aux hydro 5 g 6.0
  
  -----------------------------------------------------------------------
  Completed first pass over input file control.in .
  -----------------------------------------------------------------------
  
  
  -----------------------------------------------------------------------
  Parsing geometry.in (first pass over file, find array dimensions only).
  The contents of geometry.in will be repeated verbatim below
  unless switched off by setting 'verbatim_writeout .false.' .
  in the first line of geometry.in .
  -----------------------------------------------------------------------
  
  #=======================================================
  # FHI-aims file: /home/dylanmorgan/comp_chem/warwick/azulene_cu/110/top_0/geometry.in
  # Created using the Atomic Simulation Environment (ASE)
  # Tue Dec  6 15:01:27 2022
  #=======================================================
  lattice_vector 14.3873539248500197 0.0000000000000000 0.0000000000000000
  lattice_vector 0.0000000000000000 12.7167444044904236 0.0000000000000000
  lattice_vector 0.0000000000000000 0.0000000000000000 100.0000000000000000
  atom 0.0000000000000000 0.0000000000000000 0.0000000000000000 Cu
      constrain_relaxation .true.
  atom 0.0000000000000000 2.5433488808980846 0.0000000000000000 Cu
      constrain_relaxation .true.
  atom 0.0000000000000000 5.0866977617961693 0.0000000000000000 Cu
      constrain_relaxation .true.
  atom 0.0000000000000000 7.6300466426942535 0.0000000000000000 Cu
      constrain_relaxation .true.
  atom 0.0000000000000000 10.1733955235923386 0.0000000000000000 Cu
      constrain_relaxation .true.
  atom 3.5968384812125049 0.0000000000000000 0.0000000000000000 Cu
      constrain_relaxation .true.
  atom 3.5968384812125049 2.5433488808980846 0.0000000000000000 Cu
      constrain_relaxation .true.
  atom 3.5968384812125049 5.0866977617961693 0.0000000000000000 Cu
      constrain_relaxation .true.
  atom 3.5968384812125049 7.6300466426942535 0.0000000000000000 Cu
      constrain_relaxation .true.
  atom 3.5968384812125049 10.1733955235923386 0.0000000000000000 Cu
      constrain_relaxation .true.
  atom 7.1936769624250099 0.0000000000000000 0.0000000000000000 Cu
      constrain_relaxation .true.
  atom 7.1936769624250099 2.5433488808980846 0.0000000000000000 Cu
      constrain_relaxation .true.
  atom 7.1936769624250099 5.0866977617961693 0.0000000000000000 Cu
      constrain_relaxation .true.
  atom 7.1936769624250099 7.6300466426942535 0.0000000000000000 Cu
      constrain_relaxation .true.
  atom 7.1936769624250099 10.1733955235923386 0.0000000000000000 Cu
      constrain_relaxation .true.
  atom 10.7905154436375152 0.0000000000000000 0.0000000000000000 Cu
      constrain_relaxation .true.
  atom 10.7905154436375152 2.5433488808980846 0.0000000000000000 Cu
      constrain_relaxation .true.
  atom 10.7905154436375152 5.0866977617961693 0.0000000000000000 Cu
      constrain_relaxation .true.
  atom 10.7905154436375152 7.6300466426942535 0.0000000000000000 Cu
      constrain_relaxation .true.
  atom 10.7905154436375152 10.1733955235923386 0.0000000000000000 Cu
      constrain_relaxation .true.
  atom -1.7984192406062525 -1.2716744404490423 1.2716744404490399 Cu
      constrain_relaxation .true.
  atom -1.7984192406062525 1.2716744404490423 1.2716744404490399 Cu
      constrain_relaxation .true.
  atom -1.7984192406062525 3.8150233213471267 1.2716744404490399 Cu
      constrain_relaxation .true.
  atom -1.7984192406062525 6.3583722022452109 1.2716744404490399 Cu
      constrain_relaxation .true.
  atom -1.7984192406062525 8.9017210831432969 1.2716744404490399 Cu
      constrain_relaxation .true.
  atom 1.7984192406062525 -1.2716744404490423 1.2716744404490399 Cu
      constrain_relaxation .true.
  atom 1.7984192406062525 1.2716744404490423 1.2716744404490399 Cu
      constrain_relaxation .true.
  atom 1.7984192406062525 3.8150233213471267 1.2716744404490399 Cu
      constrain_relaxation .true.
  atom 1.7984192406062525 6.3583722022452109 1.2716744404490399 Cu
      constrain_relaxation .true.
  atom 1.7984192406062525 8.9017210831432969 1.2716744404490399 Cu
      constrain_relaxation .true.
  atom 5.3952577218187576 -1.2716744404490423 1.2716744404490399 Cu
      constrain_relaxation .true.
  atom 5.3952577218187576 1.2716744404490423 1.2716744404490399 Cu
      constrain_relaxation .true.
  atom 5.3952577218187576 3.8150233213471267 1.2716744404490399 Cu
      constrain_relaxation .true.
  atom 5.3952577218187576 6.3583722022452109 1.2716744404490399 Cu
      constrain_relaxation .true.
  atom 5.3952577218187576 8.9017210831432969 1.2716744404490399 Cu
      constrain_relaxation .true.
  atom 8.9920962030312630 -1.2716744404490423 1.2716744404490399 Cu
      constrain_relaxation .true.
  atom 8.9920962030312630 1.2716744404490423 1.2716744404490399 Cu
      constrain_relaxation .true.
  atom 8.9920962030312630 3.8150233213471267 1.2716744404490399 Cu
      constrain_relaxation .true.
  atom 8.9920962030312630 6.3583722022452109 1.2716744404490399 Cu
      constrain_relaxation .true.
  atom 8.9920962030312630 8.9017210831432969 1.2716744404490399 Cu
      constrain_relaxation .true.
  atom 0.0000000000000000 0.0000000000000000 2.5433488808980869 Cu
      constrain_relaxation .true.
  atom 0.0000000000000000 2.5433488808980846 2.5433488808980869 Cu
      constrain_relaxation .true.
  atom 0.0000000000000000 5.0866977617961693 2.5433488808980869 Cu
      constrain_relaxation .true.
  atom 0.0000000000000000 7.6300466426942535 2.5433488808980869 Cu
      constrain_relaxation .true.
  atom 0.0000000000000000 10.1733955235923386 2.5433488808980869 Cu
      constrain_relaxation .true.
  atom 3.5968384812125049 0.0000000000000000 2.5433488808980869 Cu
      constrain_relaxation .true.
  atom 3.5968384812125049 2.5433488808980846 2.5433488808980869 Cu
      constrain_relaxation .true.
  atom 3.5968384812125049 5.0866977617961693 2.5433488808980869 Cu
      constrain_relaxation .true.
  atom 3.5968384812125049 7.6300466426942535 2.5433488808980869 Cu
      constrain_relaxation .true.
  atom 3.5968384812125049 10.1733955235923386 2.5433488808980869 Cu
      constrain_relaxation .true.
  atom 7.1936769624250099 0.0000000000000000 2.5433488808980869 Cu
      constrain_relaxation .true.
  atom 7.1936769624250099 2.5433488808980846 2.5433488808980869 Cu
      constrain_relaxation .true.
  atom 7.1936769624250099 5.0866977617961693 2.5433488808980869 Cu
      constrain_relaxation .true.
  atom 7.1936769624250099 7.6300466426942535 2.5433488808980869 Cu
      constrain_relaxation .true.
  atom 7.1936769624250099 10.1733955235923386 2.5433488808980869 Cu
      constrain_relaxation .true.
  atom 10.7905154436375152 0.0000000000000000 2.5433488808980869 Cu
      constrain_relaxation .true.
  atom 10.7905154436375152 2.5433488808980846 2.5433488808980869 Cu
      constrain_relaxation .true.
  atom 10.7905154436375152 5.0866977617961693 2.5433488808980869 Cu
      constrain_relaxation .true.
  atom 10.7905154436375152 7.6300466426942535 2.5433488808980869 Cu
      constrain_relaxation .true.
  atom 10.7905154436375152 10.1733955235923386 2.5433488808980869 Cu
      constrain_relaxation .true.
  atom -1.7984192406062525 -1.2716744404490423 3.8150233213471267 Cu
      constrain_relaxation .true.
  atom -1.7984192406062525 1.2716744404490423 3.8150233213471267 Cu
      constrain_relaxation .true.
  atom -1.7984192406062525 3.8150233213471267 3.8150233213471267 Cu
      constrain_relaxation .true.
  atom -1.7984192406062525 6.3583722022452109 3.8150233213471267 Cu
      constrain_relaxation .true.
  atom -1.7984192406062525 8.9017210831432969 3.8150233213471267 Cu
      constrain_relaxation .true.
  atom 1.7984192406062525 -1.2716744404490423 3.8150233213471267 Cu
      constrain_relaxation .true.
  atom 1.7984192406062525 1.2716744404490423 3.8150233213471267 Cu
      constrain_relaxation .true.
  atom 1.7984192406062525 3.8150233213471267 3.8150233213471267 Cu
      constrain_relaxation .true.
  atom 1.7984192406062525 6.3583722022452109 3.8150233213471267 Cu
      constrain_relaxation .true.
  atom 1.7984192406062525 8.9017210831432969 3.8150233213471267 Cu
      constrain_relaxation .true.
  atom 5.3952577218187576 -1.2716744404490423 3.8150233213471267 Cu
      constrain_relaxation .true.
  atom 5.3952577218187576 1.2716744404490423 3.8150233213471267 Cu
      constrain_relaxation .true.
  atom 5.3952577218187576 3.8150233213471267 3.8150233213471267 Cu
      constrain_relaxation .true.
  atom 5.3952577218187576 6.3583722022452109 3.8150233213471267 Cu
      constrain_relaxation .true.
  atom 5.3952577218187576 8.9017210831432969 3.8150233213471267 Cu
      constrain_relaxation .true.
  atom 8.9920962030312630 -1.2716744404490423 3.8150233213471267 Cu
      constrain_relaxation .true.
  atom 8.9920962030312630 1.2716744404490423 3.8150233213471267 Cu
      constrain_relaxation .true.
  atom 8.9920962030312630 3.8150233213471267 3.8150233213471267 Cu
      constrain_relaxation .true.
  atom 8.9920962030312630 6.3583722022452109 3.8150233213471267 Cu
      constrain_relaxation .true.
  atom 8.9920962030312630 8.9017210831432969 3.8150233213471267 Cu
      constrain_relaxation .true.
  atom 0.0000000000000000 0.0000000000000000 5.0866977617961666 Cu
      constrain_relaxation .true.
  atom 0.0000000000000000 2.5433488808980846 5.0866977617961666 Cu
      constrain_relaxation .true.
  atom 0.0000000000000000 5.0866977617961693 5.0866977617961666 Cu
      constrain_relaxation .true.
  atom 0.0000000000000000 7.6300466426942535 5.0866977617961666 Cu
      constrain_relaxation .true.
  atom 0.0000000000000000 10.1733955235923386 5.0866977617961666 Cu
      constrain_relaxation .true.
  atom 3.5968384812125049 0.0000000000000000 5.0866977617961666 Cu
      constrain_relaxation .true.
  atom 3.5968384812125049 2.5433488808980846 5.0866977617961666 Cu
      constrain_relaxation .true.
  atom 3.5968384812125049 5.0866977617961693 5.0866977617961666 Cu
      constrain_relaxation .true.
  atom 3.5968384812125049 7.6300466426942535 5.0866977617961666 Cu
      constrain_relaxation .true.
  atom 3.5968384812125049 10.1733955235923386 5.0866977617961666 Cu
      constrain_relaxation .true.
  atom 7.1936769624250099 0.0000000000000000 5.0866977617961666 Cu
      constrain_relaxation .true.
  atom 7.1936769624250099 2.5433488808980846 5.0866977617961666 Cu
      constrain_relaxation .true.
  atom 7.1936769624250099 5.0866977617961693 5.0866977617961666 Cu
      constrain_relaxation .true.
  atom 7.1936769624250099 7.6300466426942535 5.0866977617961666 Cu
      constrain_relaxation .true.
  atom 7.1936769624250099 10.1733955235923386 5.0866977617961666 Cu
      constrain_relaxation .true.
  atom 10.7905154436375152 0.0000000000000000 5.0866977617961666 Cu
      constrain_relaxation .true.
  atom 10.7905154436375152 2.5433488808980846 5.0866977617961666 Cu
      constrain_relaxation .true.
  atom 10.7905154436375152 5.0866977617961693 5.0866977617961666 Cu
      constrain_relaxation .true.
  atom 10.7905154436375152 7.6300466426942535 5.0866977617961666 Cu
      constrain_relaxation .true.
  atom 10.7905154436375152 10.1733955235923386 5.0866977617961666 Cu
      constrain_relaxation .true.
  atom -1.7984192406062525 -1.2716744404490423 6.3583722022452136 Cu
      constrain_relaxation .true.
  atom -1.7984192406062525 1.2716744404490423 6.3583722022452136 Cu
      constrain_relaxation .true.
  atom -1.7984192406062525 3.8150233213471267 6.3583722022452136 Cu
      constrain_relaxation .true.
  atom -1.7984192406062525 6.3583722022452109 6.3583722022452136 Cu
      constrain_relaxation .true.
  atom -1.7984192406062525 8.9017210831432969 6.3583722022452136 Cu
      constrain_relaxation .true.
  atom 1.7984192406062525 -1.2716744404490423 6.3583722022452136 Cu
      constrain_relaxation .true.
  atom 1.7984192406062525 1.2716744404490423 6.3583722022452136 Cu
      constrain_relaxation .true.
  atom 1.7984192406062525 3.8150233213471267 6.3583722022452136 Cu
      constrain_relaxation .true.
  atom 1.7984192406062525 6.3583722022452109 6.3583722022452136 Cu
      constrain_relaxation .true.
  atom 1.7984192406062525 8.9017210831432969 6.3583722022452136 Cu
      constrain_relaxation .true.
  atom 5.3952577218187576 -1.2716744404490423 6.3583722022452136 Cu
      constrain_relaxation .true.
  atom 5.3952577218187576 1.2716744404490423 6.3583722022452136 Cu
      constrain_relaxation .true.
  atom 5.3952577218187576 3.8150233213471267 6.3583722022452136 Cu
      constrain_relaxation .true.
  atom 5.3952577218187576 6.3583722022452109 6.3583722022452136 Cu
      constrain_relaxation .true.
  atom 5.3952577218187576 8.9017210831432969 6.3583722022452136 Cu
      constrain_relaxation .true.
  atom 8.9920962030312630 -1.2716744404490423 6.3583722022452136 Cu
      constrain_relaxation .true.
  atom 8.9920962030312630 1.2716744404490423 6.3583722022452136 Cu
      constrain_relaxation .true.
  atom 8.9920962030312630 3.8150233213471267 6.3583722022452136 Cu
      constrain_relaxation .true.
  atom 8.9920962030312630 6.3583722022452109 6.3583722022452136 Cu
      constrain_relaxation .true.
  atom 8.9920962030312630 8.9017210831432969 6.3583722022452136 Cu
      constrain_relaxation .true.
  atom 0.0000000000000000 0.0000000000000000 7.6300466426942535 Cu
  atom 0.0000000000000000 2.5433488808980846 7.6300466426942535 Cu
  atom 0.0000000000000000 5.0866977617961693 7.6300466426942535 Cu
  atom 0.0000000000000000 7.6300466426942535 7.6300466426942535 Cu
  atom 0.0000000000000000 10.1733955235923386 7.6300466426942535 Cu
  atom 3.5968384812125049 0.0000000000000000 7.6300466426942535 Cu
  atom 3.5968384812125049 2.5433488808980846 7.6300466426942535 Cu
  atom 3.5968384812125049 5.0866977617961693 7.6300466426942535 Cu
  atom 3.5968384812125049 7.6300466426942535 7.6300466426942535 Cu
  atom 3.5968384812125049 10.1733955235923386 7.6300466426942535 Cu
  atom 7.1936769624250099 0.0000000000000000 7.6300466426942535 Cu
  atom 7.1936769624250099 2.5433488808980846 7.6300466426942535 Cu
  atom 7.1936769624250099 5.0866977617961693 7.6300466426942535 Cu
  atom 7.1936769624250099 7.6300466426942535 7.6300466426942535 Cu
  atom 7.1936769624250099 10.1733955235923386 7.6300466426942535 Cu
  atom 10.7905154436375152 0.0000000000000000 7.6300466426942535 Cu
  atom 10.7905154436375152 2.5433488808980846 7.6300466426942535 Cu
  atom 10.7905154436375152 5.0866977617961693 7.6300466426942535 Cu
  atom 10.7905154436375152 7.6300466426942535 7.6300466426942535 Cu
  atom 10.7905154436375152 10.1733955235923386 7.6300466426942535 Cu
  atom -1.7984192406062525 -1.2716744404490423 8.9017210831433005 Cu
  atom -1.7984192406062525 1.2716744404490423 8.9017210831433005 Cu
  atom -1.7984192406062525 3.8150233213471267 8.9017210831433005 Cu
  atom -1.7984192406062525 6.3583722022452109 8.9017210831433005 Cu
  atom -1.7984192406062525 8.9017210831432969 8.9017210831433005 Cu
  atom 1.7984192406062525 -1.2716744404490423 8.9017210831433005 Cu
  atom 1.7984192406062525 1.2716744404490423 8.9017210831433005 Cu
  atom 1.7984192406062525 3.8150233213471267 8.9017210831433005 Cu
  atom 1.7984192406062525 6.3583722022452109 8.9017210831433005 Cu
  atom 1.7984192406062525 8.9017210831432969 8.9017210831433005 Cu
  atom 5.3952577218187576 -1.2716744404490423 8.9017210831433005 Cu
  atom 5.3952577218187576 1.2716744404490423 8.9017210831433005 Cu
  atom 5.3952577218187576 3.8150233213471267 8.9017210831433005 Cu
  atom 5.3952577218187576 6.3583722022452109 8.9017210831433005 Cu
  atom 5.3952577218187576 8.9017210831432969 8.9017210831433005 Cu
  atom 8.9920962030312630 -1.2716744404490423 8.9017210831433005 Cu
  atom 8.9920962030312630 1.2716744404490423 8.9017210831433005 Cu
  atom 8.9920962030312630 3.8150233213471267 8.9017210831433005 Cu
  atom 8.9920962030312630 6.3583722022452109 8.9017210831433005 Cu
  atom 8.9920962030312630 8.9017210831432969 8.9017210831433005 Cu
  
  -----------------------------------------------------------------------
  Completed first pass over input file geometry.in .
  -----------------------------------------------------------------------
  

  Basic array size parameters:
  | Number of species                 :        4
  | Number of atoms                   :      160
  | Number of lattice vectors         :        3
  | Max. basis fn. angular momentum   :        4
  | Max. atomic/ionic basis occupied n:        4
  | Max. number of basis fn. types    :        3
  | Max. radial fns per species/type  :        8
  | Max. logarithmic grid size        :     1406
  | Max. radial integration grid size :      107
  | Max. angular integration grid size:      434
  | Max. angular grid division number :        8
  | Radial grid for Hartree potential :     1406
  | Number of spin channels           :        1

------------------------------------------------------------
          Reading file control.in.
------------------------------------------------------------
  XC: Using PBE gradient-corrected functionals.
  Found k-point grid:         6         6         1
  Spin treatment: No spin polarisation.
  Scalar relativistic treatment of kinetic energy: on-site free-atom approximation to ZORA.
  Occupation type: Gaussian broadening, width =   0.100000E+00 eV.
  Convergence accuracy of self-consistent charge density:  0.1000E-04
  Convergence accuracy of sum of eigenvalues:  0.1000E-02
  Convergence accuracy of total energy:  0.1000E-05
  Maximum number of s.-c. iterations  :   500
  Using libMBD for calculating MBD and TS energies

  Reading configuration options for species Cu1                 .
  | Found nuclear charge :  29.0000
  | Found atomic mass :    63.545999999999999      amu
  | Found l_max for Hartree potential  :   4
  | Found cutoff potl. onset [A], width [A], scale factor :    3.50000    1.50000    1.00000
  | Threshold for basis-dependent cutoff potential is   0.100000E-03
  | Found data for basic radial integration grid :    53 points, outermost radius =    5.000 A
  | Found multiplier for basic radial grid :   1
  | Found angular grid specification: user-specified.
  | Specified grid contains     5 separate shells.
  | Check grid settings after all constraints further below.
  | Found free-atom valence shell :  4 s   1.000
  | Found free-atom valence shell :  3 p   6.000
  | Found free-atom valence shell :  3 d  10.000
  | Found free-ion valence shell :  4 s   0.000
  | Found free-ion valence shell :  3 p   6.000
  | Found free-ion valence shell :  3 d   9.000
  | Found ionic basis function :  4 p , default cutoff radius.
  | Found hydrogenic basis function :  4 f   7.400
  | Found hydrogenic basis function :  3 s   2.600
  | Found hydrogenic basis function :  3 d   5.000
  | Found explicit parameters for TS-vdw correction:
  |    C6    =  59.000000
  |    alpha =  10.900000
  |    R0    =   2.400000
  Species Cu1                 : Missing cutoff potential type.
  Defaulting to exp(1/x)/(1-x)^2 type cutoff potential.
  Species Cu: No 'logarithmic' tag. Using default grid for free atom:
  | Default logarithmic grid data [bohr] : 0.1000E-03 0.1000E+03 0.1012E+01
  | Will include ionic basis functions of  2.0-fold positive Cu1                  ion.
  Species Cu: On-site basis accuracy parameter (for Gram-Schmidt orthonormalisation) not specified.
  Using default value basis_acc =  0.1000000E-03.
  Species Cu1                 : Using default innermost maximum threshold i_radial=  2 for radial functions.
  Species Cu1                 : Default cutoff onset for free atom density etc. : 0.35000000E+01 AA.
  Species Cu1                 : Basic radial grid will be enhanced according to radial_multiplier =   1, to contain    53 grid points.

  Reading configuration options for species Cu                  .
  | Found nuclear charge :  29.0000
  | Found atomic mass :    63.545999999999999      amu
  | Found l_max for Hartree potential  :   6
  | Found cutoff potl. onset [A], width [A], scale factor :    4.00000    2.00000    1.00000
  | Threshold for basis-dependent cutoff potential is   0.100000E-03
  | Found data for basic radial integration grid :    53 points, outermost radius =    7.000 A
  | Found multiplier for basic radial grid :   2
  | Found angular grid specification: user-specified.
  | Specified grid contains     6 separate shells.
  | Check grid settings after all constraints further below.
  | Found free-atom valence shell :  4 s   1.000
  | Found free-atom valence shell :  3 p   6.000
  | Found free-atom valence shell :  3 d  10.000
  | Found free-ion valence shell :  4 s   0.000
  | Found free-ion valence shell :  3 p   6.000
  | Found free-ion valence shell :  3 d   9.000
  | Found ionic basis function :  4 p , default cutoff radius.
  | Found hydrogenic basis function :  4 f   7.400
  | Found hydrogenic basis function :  3 s   2.600
  | Found hydrogenic basis function :  3 d   5.000
  | Found hydrogenic basis function :  5 g  10.400
  | Found explicit parameters for TS-vdw correction:
  |    C6    =  59.000000
  |    alpha =  10.900000
  |    R0    =   2.400000
  Species Cu                  : Missing cutoff potential type.
  Defaulting to exp(1/x)/(1-x)^2 type cutoff potential.
  Species Cu: No 'logarithmic' tag. Using default grid for free atom:
  | Default logarithmic grid data [bohr] : 0.1000E-03 0.1000E+03 0.1012E+01
  | Will include ionic basis functions of  2.0-fold positive Cu                   ion.
  Species Cu: On-site basis accuracy parameter (for Gram-Schmidt orthonormalisation) not specified.
  Using default value basis_acc =  0.1000000E-03.
  Species Cu                  : Using default innermost maximum threshold i_radial=  2 for radial functions.
  Species Cu                  : Default cutoff onset for free atom density etc. : 0.40000000E+01 AA.
  Species Cu                  : Basic radial grid will be enhanced according to radial_multiplier =   2, to contain   107 grid points.

  Reading configuration options for species C                   .
  | Found nuclear charge :   6.0000
  | Found atomic mass :    12.010700000000000      amu
  | Found l_max for Hartree potential  :   6
  | Found cutoff potl. onset [A], width [A], scale factor :    4.00000    2.00000    1.00000
  | Threshold for basis-dependent cutoff potential is   0.100000E-03
  | Found data for basic radial integration grid :    34 points, outermost radius =    7.000 A
  | Found multiplier for basic radial grid :   2
  | Found angular grid specification: user-specified.
  | Specified grid contains     6 separate shells.
  | Check grid settings after all constraints further below.
  | Found free-atom valence shell :  2 s   2.000
  | Found free-atom valence shell :  2 p   2.000
  | Found free-ion valence shell :  2 s   1.000
  | Found free-ion valence shell :  2 p   1.000
  | Found hydrogenic basis function :  2 p   1.700
  | Found hydrogenic basis function :  3 d   6.000
  | Found hydrogenic basis function :  2 s   4.900
  | Found hydrogenic basis function :  4 f   9.800
  | Found hydrogenic basis function :  3 p   5.200
  | Found hydrogenic basis function :  3 s   4.300
  | Found hydrogenic basis function :  5 g  14.400
  | Found hydrogenic basis function :  3 d   6.200
  Species C                   : Missing cutoff potential type.
  Defaulting to exp(1/x)/(1-x)^2 type cutoff potential.
  Species C : No 'logarithmic' tag. Using default grid for free atom:
  | Default logarithmic grid data [bohr] : 0.1000E-03 0.1000E+03 0.1012E+01
  Species C : On-site basis accuracy parameter (for Gram-Schmidt orthonormalisation) not specified.
  Using default value basis_acc =  0.1000000E-03.
  Species C                   : Using default innermost maximum threshold i_radial=  2 for radial functions.
  Species C                   : Default cutoff onset for free atom density etc. : 0.40000000E+01 AA.
  Species C                   : Basic radial grid will be enhanced according to radial_multiplier =   2, to contain    69 grid points.

  Reading configuration options for species H                   .
  | Found nuclear charge :   1.0000
  | Found atomic mass :    1.0079400000000001      amu
  | Found l_max for Hartree potential  :   6
  | Found cutoff potl. onset [A], width [A], scale factor :    4.00000    2.00000    1.00000
  | Threshold for basis-dependent cutoff potential is   0.100000E-03
  | Found data for basic radial integration grid :    24 points, outermost radius =    7.000 A
  | Found multiplier for basic radial grid :   2
  | Found angular grid specification: user-specified.
  | Specified grid contains     6 separate shells.
  | Check grid settings after all constraints further below.
  | Found free-atom valence shell :  1 s   1.000
  | Found free-ion valence shell :  1 s   0.500
  | Found hydrogenic basis function :  2 s   2.100
  | Found hydrogenic basis function :  2 p   3.500
  | Found hydrogenic basis function :  1 s   0.850
  | Found hydrogenic basis function :  2 p   3.700
  | Found hydrogenic basis function :  2 s   1.200
  | Found hydrogenic basis function :  3 d   7.000
  Species H                   : Missing cutoff potential type.
  Defaulting to exp(1/x)/(1-x)^2 type cutoff potential.
  Species H : No 'logarithmic' tag. Using default grid for free atom:
  | Default logarithmic grid data [bohr] : 0.1000E-03 0.1000E+03 0.1012E+01
  Species H : On-site basis accuracy parameter (for Gram-Schmidt orthonormalisation) not specified.
  Using default value basis_acc =  0.1000000E-03.
  Species H                   : Using default innermost maximum threshold i_radial=  2 for radial functions.
  Species H                   : Default cutoff onset for free atom density etc. : 0.40000000E+01 AA.
  Species H                   : Basic radial grid will be enhanced according to radial_multiplier =   2, to contain    49 grid points.

  Finished reading input file 'control.in'.

------------------------------------------------------------


------------------------------------------------------------
          Reading geometry description geometry.in.
------------------------------------------------------------
 No relaxation requested - ignoring relaxation constraint.
 No relaxation requested - ignoring relaxation constraint.
 No relaxation requested - ignoring relaxation constraint.
 No relaxation requested - ignoring relaxation constraint.
 No relaxation requested - ignoring relaxation constraint.
 No relaxation requested - ignoring relaxation constraint.
 No relaxation requested - ignoring relaxation constraint.
 No relaxation requested - ignoring relaxation constraint.
 No relaxation requested - ignoring relaxation constraint.
 No relaxation requested - ignoring relaxation constraint.
 No relaxation requested - ignoring relaxation constraint.
 No relaxation requested - ignoring relaxation constraint.
 No relaxation requested - ignoring relaxation constraint.
 No relaxation requested - ignoring relaxation constraint.
 No relaxation requested - ignoring relaxation constraint.
 No relaxation requested - ignoring relaxation constraint.
 No relaxation requested - ignoring relaxation constraint.
 No relaxation requested - ignoring relaxation constraint.
 No relaxation requested - ignoring relaxation constraint.
 No relaxation requested - ignoring relaxation constraint.
 No relaxation requested - ignoring relaxation constraint.
 No relaxation requested - ignoring relaxation constraint.
 No relaxation requested - ignoring relaxation constraint.
 No relaxation requested - ignoring relaxation constraint.
 No relaxation requested - ignoring relaxation constraint.
 No relaxation requested - ignoring relaxation constraint.
 No relaxation requested - ignoring relaxation constraint.
 No relaxation requested - ignoring relaxation constraint.
 No relaxation requested - ignoring relaxation constraint.
 No relaxation requested - ignoring relaxation constraint.
 No relaxation requested - ignoring relaxation constraint.
 No relaxation requested - ignoring relaxation constraint.
 No relaxation requested - ignoring relaxation constraint.
 No relaxation requested - ignoring relaxation constraint.
 No relaxation requested - ignoring relaxation constraint.
 No relaxation requested - ignoring relaxation constraint.
 No relaxation requested - ignoring relaxation constraint.
 No relaxation requested - ignoring relaxation constraint.
 No relaxation requested - ignoring relaxation constraint.
 No relaxation requested - ignoring relaxation constraint.
 No relaxation requested - ignoring relaxation constraint.
 No relaxation requested - ignoring relaxation constraint.
 No relaxation requested - ignoring relaxation constraint.
 No relaxation requested - ignoring relaxation constraint.
 No relaxation requested - ignoring relaxation constraint.
 No relaxation requested - ignoring relaxation constraint.
 No relaxation requested - ignoring relaxation constraint.
 No relaxation requested - ignoring relaxation constraint.
 No relaxation requested - ignoring relaxation constraint.
 No relaxation requested - ignoring relaxation constraint.
 No relaxation requested - ignoring relaxation constraint.
 No relaxation requested - ignoring relaxation constraint.
 No relaxation requested - ignoring relaxation constraint.
 No relaxation requested - ignoring relaxation constraint.
 No relaxation requested - ignoring relaxation constraint.
 No relaxation requested - ignoring relaxation constraint.
 No relaxation requested - ignoring relaxation constraint.
 No relaxation requested - ignoring relaxation constraint.
 No relaxation requested - ignoring relaxation constraint.
 No relaxation requested - ignoring relaxation constraint.
 No relaxation requested - ignoring relaxation constraint.
 No relaxation requested - ignoring relaxation constraint.
 No relaxation requested - ignoring relaxation constraint.
 No relaxation requested - ignoring relaxation constraint.
 No relaxation requested - ignoring relaxation constraint.
 No relaxation requested - ignoring relaxation constraint.
 No relaxation requested - ignoring relaxation constraint.
 No relaxation requested - ignoring relaxation constraint.
 No relaxation requested - ignoring relaxation constraint.
 No relaxation requested - ignoring relaxation constraint.
 No relaxation requested - ignoring relaxation constraint.
 No relaxation requested - ignoring relaxation constraint.
 No relaxation requested - ignoring relaxation constraint.
 No relaxation requested - ignoring relaxation constraint.
 No relaxation requested - ignoring relaxation constraint.
 No relaxation requested - ignoring relaxation constraint.
 No relaxation requested - ignoring relaxation constraint.
 No relaxation requested - ignoring relaxation constraint.
 No relaxation requested - ignoring relaxation constraint.
 No relaxation requested - ignoring relaxation constraint.
 No relaxation requested - ignoring relaxation constraint.
 No relaxation requested - ignoring relaxation constraint.
 No relaxation requested - ignoring relaxation constraint.
 No relaxation requested - ignoring relaxation constraint.
 No relaxation requested - ignoring relaxation constraint.
 No relaxation requested - ignoring relaxation constraint.
 No relaxation requested - ignoring relaxation constraint.
 No relaxation requested - ignoring relaxation constraint.
 No relaxation requested - ignoring relaxation constraint.
 No relaxation requested - ignoring relaxation constraint.
 No relaxation requested - ignoring relaxation constraint.
 No relaxation requested - ignoring relaxation constraint.
 No relaxation requested - ignoring relaxation constraint.
 No relaxation requested - ignoring relaxation constraint.
 No relaxation requested - ignoring relaxation constraint.
 No relaxation requested - ignoring relaxation constraint.
 No relaxation requested - ignoring relaxation constraint.
 No relaxation requested - ignoring relaxation constraint.
 No relaxation requested - ignoring relaxation constraint.
 No relaxation requested - ignoring relaxation constraint.
 No relaxation requested - ignoring relaxation constraint.
 No relaxation requested - ignoring relaxation constraint.
 No relaxation requested - ignoring relaxation constraint.
 No relaxation requested - ignoring relaxation constraint.
 No relaxation requested - ignoring relaxation constraint.
 No relaxation requested - ignoring relaxation constraint.
 No relaxation requested - ignoring relaxation constraint.
 No relaxation requested - ignoring relaxation constraint.
 No relaxation requested - ignoring relaxation constraint.
 No relaxation requested - ignoring relaxation constraint.
 No relaxation requested - ignoring relaxation constraint.
 No relaxation requested - ignoring relaxation constraint.
 No relaxation requested - ignoring relaxation constraint.
 No relaxation requested - ignoring relaxation constraint.
 No relaxation requested - ignoring relaxation constraint.
 No relaxation requested - ignoring relaxation constraint.
 No relaxation requested - ignoring relaxation constraint.
 No relaxation requested - ignoring relaxation constraint.
 No relaxation requested - ignoring relaxation constraint.
 No relaxation requested - ignoring relaxation constraint.
  | The smallest distance between any two atoms is         2.54334888 AA.
  | The first atom of this pair is atom number                     41 .
  | The second atom of this pair is atom number                    81 .
  | Wigner-Seitz cell of the first atom image           0     0     0 .
  | (The Wigner-Seitz cell of the second atom is 0 0 0  by definition.)

  Symmetry information by spglib:
  | Precision set to  0.1E-04
  | Number of Operations  : 160
  | Space group           : 59
  | International         : Pmmn
  | Schoenflies           : D2h^13
  Input structure read successfully.
  The structure contains      160 atoms,  and a total of       4640.000 electrons.

  Input geometry:
  | Unit cell:
  |       14.38735392        0.00000000        0.00000000
  |        0.00000000       12.71674440        0.00000000
  |        0.00000000        0.00000000      100.00000000
  | Atomic structure:
  |       Atom                x [A]            y [A]            z [A]
  |    1: Species Cu            0.00000000        0.00000000        0.00000000
  |    2: Species Cu            0.00000000        2.54334888        0.00000000
  |    3: Species Cu            0.00000000        5.08669776        0.00000000
  |    4: Species Cu            0.00000000        7.63004664        0.00000000
  |    5: Species Cu            0.00000000       10.17339552        0.00000000
  |    6: Species Cu            3.59683848        0.00000000        0.00000000
  |    7: Species Cu            3.59683848        2.54334888        0.00000000
  |    8: Species Cu            3.59683848        5.08669776        0.00000000
  |    9: Species Cu            3.59683848        7.63004664        0.00000000
  |   10: Species Cu            3.59683848       10.17339552        0.00000000
  |   11: Species Cu            7.19367696        0.00000000        0.00000000
  |   12: Species Cu            7.19367696        2.54334888        0.00000000
  |   13: Species Cu            7.19367696        5.08669776        0.00000000
  |   14: Species Cu            7.19367696        7.63004664        0.00000000
  |   15: Species Cu            7.19367696       10.17339552        0.00000000
  |   16: Species Cu           10.79051544        0.00000000        0.00000000
  |   17: Species Cu           10.79051544        2.54334888        0.00000000
  |   18: Species Cu           10.79051544        5.08669776        0.00000000
  |   19: Species Cu           10.79051544        7.63004664        0.00000000
  |   20: Species Cu           10.79051544       10.17339552        0.00000000
  |   21: Species Cu           -1.79841924       -1.27167444        1.27167444
  |   22: Species Cu           -1.79841924        1.27167444        1.27167444
  |   23: Species Cu           -1.79841924        3.81502332        1.27167444
[...]
   3087       0.00000           0.778915           21.19535
   3088       0.00000           0.781760           21.27277
   3089       0.00000           0.783513           21.32049
   3090       0.00000           0.783513           21.32049
   3091       0.00000           0.783513           21.32049
   3092       0.00000           0.783513           21.32049
   3093       0.00000           0.784353           21.34332
   3094       0.00000           0.784353           21.34332
   3095       0.00000           0.784353           21.34332
   3096       0.00000           0.784353           21.34332
   3097       0.00000           0.787920           21.44039
   3098       0.00000           0.789797           21.49148
   3099       0.00000           0.789797           21.49148
   3100       0.00000           0.789797           21.49148
   3101       0.00000           0.789797           21.49148
   3102       0.00000           0.789976           21.49634
   3103       0.00000           0.789976           21.49634
   3104       0.00000           0.790386           21.50749
   3105       0.00000           0.790386           21.50749
   3106       0.00000           0.793062           21.58031
   3107       0.00000           0.794426           21.61744
   3108       0.00000           0.794426           21.61744
   3109       0.00000           0.804319           21.88664
   3110       0.00000           0.804319           21.88664
   3111       0.00000           0.804319           21.88664
   3112       0.00000           0.804319           21.88664
   3113       0.00000           0.809084           22.01630
   3114       0.00000           0.809084           22.01630
   3115       0.00000           0.809084           22.01630
   3116       0.00000           0.809084           22.01630
   3117       0.00000           0.813305           22.13116
   3118       0.00000           0.819133           22.28974
   3119       0.00000           0.819133           22.28974
   3120       0.00000           0.823876           22.41880
   3121       0.00000           0.823876           22.41880
   3122       0.00000           0.823876           22.41880
   3123       0.00000           0.823876           22.41880
   3124       0.00000           0.829049           22.55957
   3125       0.00000           0.829049           22.55957
   3126       0.00000           0.829049           22.55957
   3127       0.00000           0.829049           22.55957
   3128       0.00000           0.830549           22.60039
   3129       0.00000           0.830549           22.60039
   3130       0.00000           0.831024           22.61330
   3131       0.00000           0.831024           22.61330
   3132       0.00000           0.831158           22.61697
   3133       0.00000           0.831158           22.61697
   3134       0.00000           0.837660           22.79390
   3135       0.00000           0.840191           22.86276
   3136       0.00000           0.840191           22.86276
   3137       0.00000           0.840191           22.86276
   3138       0.00000           0.840191           22.86276
   3139       0.00000           0.840647           22.87517
   3140       0.00000           0.840647           22.87517
   3141       0.00000           0.840647           22.87517
   3142       0.00000           0.840647           22.87517
   3143       0.00000           0.840841           22.88046
   3144       0.00000           0.840841           22.88046
   3145       0.00000           0.844231           22.97270
   3146       0.00000           0.844231           22.97270
   3147       0.00000           0.844906           22.99107
   3148       0.00000           0.844906           22.99107
   3149       0.00000           0.844906           22.99107
   3150       0.00000           0.844906           22.99107
   3151       0.00000           0.849358           23.11219
   3152       0.00000           0.849358           23.11219
   3153       0.00000           0.854094           23.24109
   3154       0.00000           0.856465           23.30560
   3155       0.00000           0.856465           23.30560
   3156       0.00000           0.856465           23.30560
   3157       0.00000           0.856465           23.30560
   3158       0.00000           0.864196           23.51597
   3159       0.00000           0.864196           23.51597
   3160       0.00000           0.864790           23.53214
   3161       0.00000           0.865335           23.54695
   3162       0.00000           0.865335           23.54695
   3163       0.00000           0.865901           23.56236
   3164       0.00000           0.865901           23.56236
   3165       0.00000           0.865901           23.56236
   3166       0.00000           0.865901           23.56236
   3167       0.00000           0.872398           23.73915
   3168       0.00000           0.872398           23.73915
   3169       0.00000           0.876093           23.83971
   3170       0.00000           0.876504           23.85088
   3171       0.00000           0.876504           23.85088
   3172       0.00000           0.877577           23.88008
   3173       0.00000           0.877577           23.88008
   3174       0.00000           0.877577           23.88008
   3175       0.00000           0.877577           23.88008
   3176       0.00000           0.879028           23.91956
   3177       0.00000           0.879028           23.91956
   3178       0.00000           0.879028           23.91956
   3179       0.00000           0.879028           23.91956
   3180       0.00000           0.879191           23.92400
   3181       0.00000           0.879191           23.92400
   3182       0.00000           0.879191           23.92400
   3183       0.00000           0.879191           23.92400
   3184       0.00000           0.879513           23.93275
   3185       0.00000           0.879513           23.93275
   3186       0.00000           0.892486           24.28578
   3187       0.00000           0.892486           24.28578
   3188       0.00000           0.892677           24.29097
   3189       0.00000           0.892677           24.29097
   3190       0.00000           0.893154           24.30395
   3191       0.00000           0.893154           24.30395
   3192       0.00000           0.893898           24.32419
   3193       0.00000           0.893898           24.32419
   3194       0.00000           0.897983           24.43537
   3195       0.00000           0.897983           24.43537
   3196       0.00000           0.897983           24.43537
   3197       0.00000           0.897983           24.43537
   3198       0.00000           0.899840           24.48590
   3199       0.00000           0.899840           24.48590
   3200       0.00000           0.899840           24.48590

  What follows are estimated values for band gap, HOMO, LUMO, etc.
  | They are estimated on a discrete k-point grid and not necessarily exact.
  | For converged numbers, create a DOS and/or band structure plot on a denser k-grid.

  Highest occupied state (VBM) at     -4.56866260 eV (relative to internal zero)
  | Occupation number:      1.07690251
  | K-point:      14 at    0.500000    0.000000    0.000000 (in units of recip. lattice)

  Lowest unoccupied state (CBM) at    -4.56027705 eV (relative to internal zero)
  | Occupation number:      0.98240262
  | K-point:      15 at    0.500000    0.333333    0.000000 (in units of recip. lattice)

  ESTIMATED overall HOMO-LUMO gap:      0.00838555 eV between HOMO at k-point 14 and LUMO at k-point 15
  | This appears to be an indirect band gap.
  | Smallest direct gap :      0.02535959 eV for k_point 20 at    0.833333    0.833333    0.000000 (in units of recip. lattice)
  However, this system has fractional occupation numbers. Since we use a finite k-point grid,
  this material is metallic within the approximate finite broadening function (occupation_type)
  applied to determine the occupation numbers.
  | Chemical Potential                          :    -4.56183671 eV

  Self-consistency cycle converged.


------------------------------------------------------------
  End self-consistency iteration #    53       :  max(cpu_time)    wall_clock(cpu1)
  | Time for this iteration                    :       22.028 s          22.000 s
  | Charge density update                      :        0.000 s           0.000 s
  | Density mixing                             :        0.492 s           0.455 s
  | Hartree multipole update                   :        0.033 s           0.032 s
  | Hartree multipole summation                :        1.308 s           1.309 s
  | Integration                                :        5.327 s           5.328 s
  | Solution of K.-S. eqns.                    :       14.839 s          14.840 s
  | Total energy evaluation                    :        0.004 s           0.002 s

  Partial memory accounting:
  | Current value for overall tracked memory usage:
  |   Minimum:      286.901 MB (on task   0)
  |   Maximum:      286.901 MB (on task   0)
  |   Average:      286.901 MB
  | Peak value for overall tracked memory usage:
  |   Minimum:      670.753 MB (on task   0 after allocating temp_ham_ovlp)
  |   Maximum:      670.753 MB (on task   0 after allocating temp_ham_ovlp)
  |   Average:      670.753 MB
  | Largest tracked array allocation so far:
  |   Minimum:      191.928 MB (overlap_matrix on task   0)
  |   Maximum:      191.928 MB (overlap_matrix on task   0)
  |   Average:      191.928 MB
  Note:  These values currently only include a subset of arrays which are explicitly tracked.
  The "true" memory usage will be greater.
------------------------------------------------------------
  Obtaining max. number of non-zero basis functions in each batch .
  Evaluating KS electron density on previously omitted grid points, using the density matrix.
  Evaluating density matrix
  Finished density matrix calculation
  | Time :     0.927 s

  Entering Libmbd.
  Libmbd: VdW method: mbd-nl
  Libmbd: Evaluating kinetic energy density...

  Evaluating density matrix
  Finished density matrix calculation
  | Time :     1.057 s

  Libmbd: Performing Hirshfeld analysis...
  Libmbd: Calculating MBD energy...
  Libmbd: Evaluated energy: -1.5868949564458990

  Leaving Libmbd.


  Total energy components:
  | Sum of eigenvalues            :     -154723.95620466 Ha    -4210253.06364624 eV
  | XC energy correction          :      -10838.49453071 Ha     -294930.44207635 eV
  | XC potential correction       :       14084.04293697 Ha      383246.30767250 eV
  | Free-atom electrostatic energy:     -114791.24835302 Ha    -3123628.79616892 eV
  | Hartree energy correction     :         228.54476426 Ha        6219.01945573 eV
  | vdW energy correction         :          -1.58689496 Ha         -43.18160882 eV
  | Entropy correction            :          -0.00470175 Ha          -0.12794116 eV
  | ---------------------------
  | Total energy                  :     -266042.69828211 Ha    -7239390.15637210 eV
  | Total energy, T -> 0          :     -266042.70298387 Ha    -7239390.28431326 eV  <-- do not rely on this value for anything but (periodic) metals
  | Electronic free energy        :     -266042.70768562 Ha    -7239390.41225442 eV

  Derived energy quantities:
  | Kinetic energy                :      269997.83318930 Ha     7347014.85308085 eV
  | Electrostatic energy          :     -525200.45004574 Ha   -14291431.38576779 eV
  | Energy correction for multipole
  | error in Hartree potential    :          -0.00641163 Ha          -0.17446943 eV
  | Sum of eigenvalues per atom                           :      -26314.08164779 eV
  | Total energy (T->0) per atom                          :      -45246.18927696 eV  <-- do not rely on this value for anything but (periodic) metals
  | Electronic free energy per atom                       :      -45246.19007659 eV
  Timings for VdW correction (Tkatchenko-Scheffler 2009 or later):
  | CPU time:       17.762 s, Wall clock time:       17.722 s.

  Energy and forces in a compact form:
  | Total energy uncorrected      :         -0.723939015637210E+07 eV
  | Total energy corrected        :         -0.723939028431326E+07 eV  <-- do not rely on this value for anything but (periodic) metals
  | Electronic free energy        :         -0.723939041225442E+07 eV

  ------------------------------------ 
  Start decomposition of the XC Energy 
  ------------------------------------ 
  X and C from original XC functional choice 
  Hartree-Fock Energy :          0.000000000 Ha              0.000000000 eV
  X Energy            :     -10615.404600620 Ha        -288859.856210547 eV
  C Energy            :       -223.089930092 Ha          -6070.585865802 eV
  Total XC Energy     :     -10838.494530712 Ha        -294930.442076349 eV
  ------------------------------------ 
  LDA X and C from self-consistent density 
  X Energy LDA        :     -10015.556788997 Ha        -272537.166766992 eV
  C Energy LDA        :       -410.563049739 Ha         -11171.989007938 eV
  ------------------------------------ 
  End decomposition of the XC Energy 
  ------------------------------------ 

------------------------------------------------------------

------------------------------------------------------------------------------
  Final output of selected total energy values:

  The following output summarizes some interesting total energy values
  at the end of a run (AFTER all relaxation, molecular dynamics, etc.).

  | Total energy of the DFT / Hartree-Fock s.c.f. calculation      :       -7239390.156372105 eV
  | Final zero-broadening corrected energy (caution - metals only) :       -7239390.284313263 eV
  | For reference only, the value of 1 Hartree used in FHI-aims is :             27.211384500 eV
  | For reference only, the overall average (free atom contribution
  | + realspace contribution) of the electrostatic potential after
  | s.c.f. convergence is                                          :             -2.392869987 eV

  Before relying on these values, please be sure to understand exactly which
  total energy value is referred to by a given number. Different objects may
  all carry the same name 'total energy'. Definitions:

  Total energy of the DFT / Hartree-Fock s.c.f. calculation:
  | Note that this energy does not include ANY quantities calculated after the
  | s.c.f. cycle, in particular not ANY RPA, MP2, etc. many-body perturbation terms.

  Final zero-broadening corrected energy:
  | For metallic systems only, a broadening of the occupation numbers at the Fermi
  | level can be extrapolated back to zero broadening by an electron-gas inspired
  | formula. For all systems that are not real metals, this value can be
  | meaningless and should be avoided.

------------------------------------------------------------------------------
  Methods described in the following list of references were used in this FHI-aims run.
  If you publish the results, please make sure to cite these reference if they apply.
  FHI-aims is an academic code, and for our developers (often, Ph.D. students
  and postdocs), scientific credit in the community is essential.
  Thank you for helping us!

  For any use of FHI-aims, please cite:

    Volker Blum, Ralf Gehrke, Felix Hanke, Paula Havu, Ville Havu,
    Xinguo Ren, Karsten Reuter, and Matthias Scheffler
    'Ab initio molecular simulations with numeric atom-centered orbitals'
    Computer Physics Communications 180, 2175-2196 (2009)
    http://dx.doi.org/10.1016/j.cpc.2009.06.022


  The provided symmetry information was generated with SPGlib:

    Atsushi Togo, Yusuke Seto, Dimitar Pashov
    SPGlib 1.7.3 obtained from http://spglib.sourceforge.net
    Copyright (C) 2008 Atsushi Togo


  The ELSI infrastructure was used in your run to solve the Kohn-Sham electronic structure.
  Please check out http://elsi-interchange.org to learn more.
  If scalability is important for your project, please acknowledge ELSI by citing:

    V. W-z. Yu, F. Corsetti, A. Garcia, W. P. Huhn, M. Jacquelin, W. Jia,
    B. Lange, L. Lin, J. Lu, W. Mi, A. Seifitokaldani, A. Vazquez-Mayagoitia,
    C. Yang, H. Yang, and V. Blum
    'ELSI: A unified software interface for Kohn-Sham electronic structure solvers'
    Computer Physics Communications 222, 267-285 (2018).
    http://dx.doi.org/10.1016/j.cpc.2017.09.007


  For the real-space grid partitioning and parallelization used in this calculation, please cite:

    Ville Havu, Volker Blum, Paula Havu, and Matthias Scheffler,
    'Efficient O(N) integration for all-electron electronic structure calculation'
    'using numerically tabulated basis functions'
    Journal of Computational Physics 228, 8367-8379 (2009).
    http://dx.doi.org/10.1016/j.jcp.2009.08.008

  Of course, there are many other important community references, e.g., those cited in the
  above references. Our list is limited to references that describe implementations in the
  FHI-aims code. The reason is purely practical (length of this list) - please credit others as well.

   One or more s.c.f. cycles took more than 50 s.c.f. iterations.
   It might be worth adjusting your convergence settings. For example,
   metals need a larger broadening and a smaller "charge_mix_param" value than semiconductors.

------------------------------------------------------------
          Leaving FHI-aims.
          Date     :  20221210, Time     :  104352.989

          Computational steps:
          | Number of self-consistency cycles          :           53
          | Number of SCF (re)initializations          :            1

          Detailed time accounting                     :  max(cpu_time)    wall_clock(cpu1)
          | Total time                                 :     1700.113 s        1700.707 s
          | Preparation time                           :        0.595 s           0.644 s
          | Boundary condition initalization           :        1.529 s           1.528 s
          | Grid partitioning                          :        1.346 s           1.345 s
          | Preloading free-atom quantities on grid    :        0.604 s           0.602 s
          | Free-atom superposition energy             :        0.067 s           0.067 s
          | Total time for integrations                :      293.086 s         293.107 s
          | Total time for solution of K.-S. equations :      810.206 s         810.305 s
          | Total time for density update              :      474.414 s         474.434 s
          | Total time for mixing & preconditioning    :       26.166 s          24.159 s
          | Total time for Hartree multipole update    :        1.707 s           1.711 s
          | Total time for Hartree multipole sum       :       68.922 s          68.922 s
          | Total time for total energy evaluation     :        0.209 s           0.201 s
          | Total time for scaled ZORA corrections     :        0.000 s           0.000 s
          | Total time for vdW correction              :       17.762 s          17.722 s

          Partial memory accounting:
          | Residual value for overall tracked memory usage across tasks:     0.000000 MB (should be 0.000000 MB)
          | Peak values for overall tracked memory usage:
          |   Minimum:      670.753 MB (on task   0 after allocating temp_ham_ovlp)
          |   Maximum:      670.753 MB (on task   0 after allocating temp_ham_ovlp)
          |   Average:      670.753 MB
          | Largest tracked array allocation:
          |   Minimum:      191.928 MB (overlap_matrix on task   0)
          |   Maximum:      191.928 MB (overlap_matrix on task   0)
          |   Average:      191.928 MB
          Note:  These values currently only include a subset of arrays which are explicitly tracked.
          The "true" memory usage will be greater.

          Have a nice day.
------------------------------------------------------------
